Generated by Psi4
     FORCE                           RHF                       TESTBAS
Number of atoms                            I               16
Charge                                     I                0
Multiplicity                               I                1
Number of electrons                        I               50
Number of alpha electrons                  I               25
Number of beta electrons                   I               25
Number of basis functions                  I              134
Number of independent functions            I              134
Atomic numbers                             I   N=          16
           8           6           6           6           1           1
           6           1           1           1           1           8
           1           1           1           1
Nuclear charges                            R   N=          16
  8.00000000e+00  6.00000000e+00  6.00000000e+00  6.00000000e+00  1.00000000e+00
  1.00000000e+00  6.00000000e+00  1.00000000e+00  1.00000000e+00  1.00000000e+00
  1.00000000e+00  8.00000000e+00  1.00000000e+00  1.00000000e+00  1.00000000e+00
  1.00000000e+00
Current cartesian coordinates              R   N=          48
 -4.02437819e+00 -3.79122025e+00 -1.85735090e-01 -3.02382709e+00 -1.57725649e+00
  9.93030512e-01 -3.55053057e-01 -9.19635537e-01  1.00906788e-01  6.34055123e-01
  1.54654844e+00  1.26216981e+00 -3.46819305e-01 -7.83943874e-01 -1.96571764e+00
  9.37691694e-01 -2.47310705e+00  6.01380818e-01  3.30497242e+00  2.25216544e+00
  4.01426466e-01  6.49564349e-01  1.40371081e+00  3.33752239e+00 -6.62968919e-01
  3.10915288e+00  8.03339529e-01 -3.06720265e+00 -1.77816963e+00  3.06595477e+00
 -4.34502452e+00 -6.54198605e-02  4.90317010e-01  3.51874641e+00  2.62781753e+00
 -2.26467052e+00  2.53913243e+00  4.10437392e+00 -2.73452659e+00 -2.93169829e+00
 -5.21026417e+00  2.05178183e-01  4.62506233e+00  7.15748619e-01  8.27494146e-01
  3.95742701e+00  3.94139403e+00  1.42529277e+00
Integer atomic weights                     I   N=          16
          15          12          12          12           1           1
          12           1           1           1           1          15
           1           1           1           1
Real atomic weights                        R   N=          16
  1.59949146e+01  1.20000000e+01  1.20000000e+01  1.20000000e+01  1.00782503e+00
  1.00782503e+00  1.20000000e+01  1.00782503e+00  1.00782503e+00  1.00782503e+00
  1.00782503e+00  1.59949146e+01  1.00782503e+00  1.00782503e+00  1.00782503e+00
  1.00782503e+00
Number of primitive shells                 I              142
Number of contracted shells                I               68
Pure/Cartesian d shells                    I                1
Pure/Cartesian f shells                    I                1
Highest angular momentum                   I                2
Largest degree of contraction              I                6
Shell types                                I   N=          68
           0           0           1           0           1           2
           0           1           0           0           1           0
           1           2           0           1           0           0
           1           0           1           2           0           1
           0           0           1           0           1           2
           0           1           0           0           0           0
           0           0           1           0           1           2
           0           1           0           0           0           0
           0           0           0           0           0           0
           1           0           1           2           0           1
           0           0           0           0           0           0
           0           0
Number of primitives per shell             I   N=          68
           6           3           3           1           1           1
           1           1           6           3           3           1
           1           1           1           1           6           3
           3           1           1           1           1           1
           6           3           3           1           1           1
           1           1           3           1           3           1
           6           3           3           1           1           1
           1           1           3           1           3           1
           3           1           3           1           6           3
           3           1           1           1           1           1
           3           1           3           1           3           1
           3           1
Shell to atom map                          I   N=          68
           1           1           1           1           1           1
           1           1           2           2           2           2
           2           2           2           2           3           3
           3           3           3           3           3           3
           4           4           4           4           4           4
           4           4           5           5           6           6
           7           7           7           7           7           7
           7           7           8           8           9           9
          10          10          11          11          12          12
          12          12          12          12          12          12
          13          13          14          14          15          15
          16          16
Primitive exponents                        R   N=         142
  5.48467170e+03  8.25234950e+02  1.88046960e+02  5.29645000e+01  1.68975700e+01
  5.79963530e+00  1.55396160e+01  3.59993360e+00  1.01376180e+00  1.55396160e+01
  3.59993360e+00  1.01376180e+00  2.70005800e-01  2.70005800e-01  8.00000000e-01
  8.45000000e-02  8.45000000e-02  3.04752490e+03  4.57369510e+02  1.03948690e+02
  2.92101550e+01  9.28666300e+00  3.16392700e+00  7.86827240e+00  1.88128850e+00
  5.44249300e-01  7.86827240e+00  1.88128850e+00  5.44249300e-01  1.68714400e-01
  1.68714400e-01  8.00000000e-01  4.38000000e-02  4.38000000e-02  3.04752490e+03
  4.57369510e+02  1.03948690e+02  2.92101550e+01  9.28666300e+00  3.16392700e+00
  7.86827240e+00  1.88128850e+00  5.44249300e-01  7.86827240e+00  1.88128850e+00
  5.44249300e-01  1.68714400e-01  1.68714400e-01  8.00000000e-01  4.38000000e-02
  4.38000000e-02  3.04752490e+03  4.57369510e+02  1.03948690e+02  2.92101550e+01
  9.28666300e+00  3.16392700e+00  7.86827240e+00  1.88128850e+00  5.44249300e-01
  7.86827240e+00  1.88128850e+00  5.44249300e-01  1.68714400e-01  1.68714400e-01
  8.00000000e-01  4.38000000e-02  4.38000000e-02  1.87311370e+01  2.82539370e+00
  6.40121700e-01  1.61277800e-01  1.87311370e+01  2.82539370e+00  6.40121700e-01
  1.61277800e-01  3.04752490e+03  4.57369510e+02  1.03948690e+02  2.92101550e+01
  9.28666300e+00  3.16392700e+00  7.86827240e+00  1.88128850e+00  5.44249300e-01
  7.86827240e+00  1.88128850e+00  5.44249300e-01  1.68714400e-01  1.68714400e-01
  8.00000000e-01  4.38000000e-02  4.38000000e-02  1.87311370e+01  2.82539370e+00
  6.40121700e-01  1.61277800e-01  1.87311370e+01  2.82539370e+00  6.40121700e-01
  1.61277800e-01  1.87311370e+01  2.82539370e+00  6.40121700e-01  1.61277800e-01
  1.87311370e+01  2.82539370e+00  6.40121700e-01  1.61277800e-01  5.48467170e+03
  8.25234950e+02  1.88046960e+02  5.29645000e+01  1.68975700e+01  5.79963530e+00
  1.55396160e+01  3.59993360e+00  1.01376180e+00  1.55396160e+01  3.59993360e+00
  1.01376180e+00  2.70005800e-01  2.70005800e-01  8.00000000e-01  8.45000000e-02
  8.45000000e-02  1.87311370e+01  2.82539370e+00  6.40121700e-01  1.61277800e-01
  1.87311370e+01  2.82539370e+00  6.40121700e-01  1.61277800e-01  1.87311370e+01
  2.82539370e+00  6.40121700e-01  1.61277800e-01  1.87311370e+01  2.82539370e+00
  6.40121700e-01  1.61277800e-01
Contraction coefficients                   R   N=         142
  1.83109981e-03  1.39500985e-02  6.84450927e-02  2.32714275e-01  4.70192950e-01
  3.58520862e-01 -1.10777504e-01 -1.48026305e-01  1.13076704e+00  7.08742995e-02
  3.39752798e-01  7.27158595e-01  1.00000000e+00  1.00000000e+00  1.00000000e+00
  1.00000000e+00  1.00000000e+00  1.83470016e-03  1.40373012e-02  6.88426061e-02
  2.32184421e-01  4.67941342e-01  3.62312032e-01 -1.19332409e-01 -1.60854212e-01
  1.14345648e+00  6.89990956e-02  3.16423980e-01  7.44308252e-01  1.00000000e+00
  1.00000000e+00  1.00000000e+00  1.00000000e+00  1.00000000e+00  1.83470016e-03
  1.40373012e-02  6.88426061e-02  2.32184421e-01  4.67941342e-01  3.62312032e-01
 -1.19332409e-01 -1.60854212e-01  1.14345648e+00  6.89990956e-02  3.16423980e-01
  7.44308252e-01  1.00000000e+00  1.00000000e+00  1.00000000e+00  1.00000000e+00
  1.00000000e+00  1.83470016e-03  1.40373012e-02  6.88426061e-02  2.32184421e-01
  4.67941342e-01  3.62312032e-01 -1.19332409e-01 -1.60854212e-01  1.14345648e+00
  6.89990956e-02  3.16423980e-01  7.44308252e-01  1.00000000e+00  1.00000000e+00
  1.00000000e+00  1.00000000e+00  1.00000000e+00  3.34945995e-02  2.34726947e-01
  8.13757318e-01  1.00000000e+00  3.34945995e-02  2.34726947e-01  8.13757318e-01
  1.00000000e+00  1.83470016e-03  1.40373012e-02  6.88426061e-02  2.32184421e-01
  4.67941342e-01  3.62312032e-01 -1.19332409e-01 -1.60854212e-01  1.14345648e+00
  6.89990956e-02  3.16423980e-01  7.44308252e-01  1.00000000e+00  1.00000000e+00
  1.00000000e+00  1.00000000e+00  1.00000000e+00  3.34945995e-02  2.34726947e-01
  8.13757318e-01  1.00000000e+00  3.34945995e-02  2.34726947e-01  8.13757318e-01
  1.00000000e+00  3.34945995e-02  2.34726947e-01  8.13757318e-01  1.00000000e+00
  3.34945995e-02  2.34726947e-01  8.13757318e-01  1.00000000e+00  1.83109981e-03
  1.39500985e-02  6.84450927e-02  2.32714275e-01  4.70192950e-01  3.58520862e-01
 -1.10777504e-01 -1.48026305e-01  1.13076704e+00  7.08742995e-02  3.39752798e-01
  7.27158595e-01  1.00000000e+00  1.00000000e+00  1.00000000e+00  1.00000000e+00
  1.00000000e+00  3.34945995e-02  2.34726947e-01  8.13757318e-01  1.00000000e+00
  3.34945995e-02  2.34726947e-01  8.13757318e-01  1.00000000e+00  3.34945995e-02
  2.34726947e-01  8.13757318e-01  1.00000000e+00  3.34945995e-02  2.34726947e-01
  8.13757318e-01  1.00000000e+00
Coordinates of each shell                  R   N=         204
 -4.02437819e+00 -3.79122025e+00 -1.85735090e-01 -4.02437819e+00 -3.79122025e+00
 -1.85735090e-01 -4.02437819e+00 -3.79122025e+00 -1.85735090e-01 -4.02437819e+00
 -3.79122025e+00 -1.85735090e-01 -4.02437819e+00 -3.79122025e+00 -1.85735090e-01
 -4.02437819e+00 -3.79122025e+00 -1.85735090e-01 -4.02437819e+00 -3.79122025e+00
 -1.85735090e-01 -4.02437819e+00 -3.79122025e+00 -1.85735090e-01 -3.02382709e+00
 -1.57725649e+00  9.93030512e-01 -3.02382709e+00 -1.57725649e+00  9.93030512e-01
 -3.02382709e+00 -1.57725649e+00  9.93030512e-01 -3.02382709e+00 -1.57725649e+00
  9.93030512e-01 -3.02382709e+00 -1.57725649e+00  9.93030512e-01 -3.02382709e+00
 -1.57725649e+00  9.93030512e-01 -3.02382709e+00 -1.57725649e+00  9.93030512e-01
 -3.02382709e+00 -1.57725649e+00  9.93030512e-01 -3.55053057e-01 -9.19635537e-01
  1.00906788e-01 -3.55053057e-01 -9.19635537e-01  1.00906788e-01 -3.55053057e-01
 -9.19635537e-01  1.00906788e-01 -3.55053057e-01 -9.19635537e-01  1.00906788e-01
 -3.55053057e-01 -9.19635537e-01  1.00906788e-01 -3.55053057e-01 -9.19635537e-01
  1.00906788e-01 -3.55053057e-01 -9.19635537e-01  1.00906788e-01 -3.55053057e-01
 -9.19635537e-01  1.00906788e-01  6.34055123e-01  1.54654844e+00  1.26216981e+00
  6.34055123e-01  1.54654844e+00  1.26216981e+00  6.34055123e-01  1.54654844e+00
  1.26216981e+00  6.34055123e-01  1.54654844e+00  1.26216981e+00  6.34055123e-01
  1.54654844e+00  1.26216981e+00  6.34055123e-01  1.54654844e+00  1.26216981e+00
  6.34055123e-01  1.54654844e+00  1.26216981e+00  6.34055123e-01  1.54654844e+00
  1.26216981e+00 -3.46819305e-01 -7.83943874e-01 -1.96571764e+00 -3.46819305e-01
 -7.83943874e-01 -1.96571764e+00  9.37691694e-01 -2.47310705e+00  6.01380818e-01
  9.37691694e-01 -2.47310705e+00  6.01380818e-01  3.30497242e+00  2.25216544e+00
  4.01426466e-01  3.30497242e+00  2.25216544e+00  4.01426466e-01  3.30497242e+00
  2.25216544e+00  4.01426466e-01  3.30497242e+00  2.25216544e+00  4.01426466e-01
  3.30497242e+00  2.25216544e+00  4.01426466e-01  3.30497242e+00  2.25216544e+00
  4.01426466e-01  3.30497242e+00  2.25216544e+00  4.01426466e-01  3.30497242e+00
  2.25216544e+00  4.01426466e-01  6.49564349e-01  1.40371081e+00  3.33752239e+00
  6.49564349e-01  1.40371081e+00  3.33752239e+00 -6.62968919e-01  3.10915288e+00
  8.03339529e-01 -6.62968919e-01  3.10915288e+00  8.03339529e-01 -3.06720265e+00
 -1.77816963e+00  3.06595477e+00 -3.06720265e+00 -1.77816963e+00  3.06595477e+00
 -4.34502452e+00 -6.54198605e-02  4.90317010e-01 -4.34502452e+00 -6.54198605e-02
  4.90317010e-01  3.51874641e+00  2.62781753e+00 -2.26467052e+00  3.51874641e+00
  2.62781753e+00 -2.26467052e+00  3.51874641e+00  2.62781753e+00 -2.26467052e+00
  3.51874641e+00  2.62781753e+00 -2.26467052e+00  3.51874641e+00  2.62781753e+00
 -2.26467052e+00  3.51874641e+00  2.62781753e+00 -2.26467052e+00  3.51874641e+00
  2.62781753e+00 -2.26467052e+00  3.51874641e+00  2.62781753e+00 -2.26467052e+00
  2.53913243e+00  4.10437392e+00 -2.73452659e+00  2.53913243e+00  4.10437392e+00
 -2.73452659e+00 -2.93169829e+00 -5.21026417e+00  2.05178183e-01 -2.93169829e+00
 -5.21026417e+00  2.05178183e-01  4.62506233e+00  7.15748619e-01  8.27494146e-01
  4.62506233e+00  7.15748619e-01  8.27494146e-01  3.95742701e+00  3.94139403e+00
  1.42529277e+00  3.95742701e+00  3.94139403e+00  1.42529277e+00
Total Energy                               R     -3.088860057844937e+02
Alpha Orbital Energies                     R   N=         134
 -1.91625156e+01 -1.91580717e+01 -1.02423965e+01 -1.02370524e+01 -1.01990981e+01
 -1.01901585e+01 -1.02880928e+00 -1.02386268e+00 -8.00139648e-01 -7.21394325e-01
 -6.43000658e-01 -6.03389070e-01 -5.13791473e-01 -5.07942050e-01 -4.80930212e-01
 -4.50062072e-01 -4.44601999e-01 -4.11954461e-01 -3.92736647e-01 -3.74591608e-01
 -3.51067455e-01 -3.34388157e-01 -3.30196978e-01 -2.86139029e-01 -2.75158308e-01
  1.14782899e-03  3.56264669e-03  1.67175455e-02  2.49120997e-02  4.37427340e-02
  5.08880617e-02  5.42796272e-02  6.89689539e-02  7.85703415e-02  8.70521196e-02
  9.62147097e-02  1.04685520e-01  1.21089087e-01  1.39193657e-01  1.49678958e-01
  1.59379591e-01  1.73245608e-01  1.77813842e-01  1.93783322e-01  1.95362437e-01
  1.97743296e-01  2.18434491e-01  2.24015129e-01  2.30563002e-01  2.33227849e-01
  2.49440883e-01  2.57965862e-01  2.75680189e-01  2.81299192e-01  2.88604427e-01
  2.94317242e-01  3.04772121e-01  3.15489569e-01  3.23021209e-01  3.37117149e-01
  3.39894073e-01  3.48639613e-01  3.60996965e-01  3.95696349e-01  5.99607221e-01
  6.24677537e-01  6.46143323e-01  6.54957613e-01  6.72539440e-01  6.92883204e-01
  7.09721580e-01  7.41526249e-01  7.52338464e-01  8.66752541e-01  8.84945305e-01
  8.96145585e-01  9.17680148e-01  9.41984691e-01  9.63059408e-01  1.01783061e+00
  1.02817038e+00  1.04353199e+00  1.06397829e+00  1.07739596e+00  1.09543624e+00
  1.10212478e+00  1.11836112e+00  1.20452947e+00  1.21999824e+00  1.23827908e+00
  1.28017103e+00  1.28992257e+00  1.31662881e+00  1.39002944e+00  1.43180001e+00
  1.45887642e+00  1.49986668e+00  1.55041405e+00  1.60943942e+00  1.65367098e+00
  1.68276083e+00  1.69289408e+00  1.73803301e+00  1.78200427e+00  1.81971213e+00
  1.87416086e+00  1.89159939e+00  1.94334814e+00  1.98383179e+00  2.00058917e+00
  2.02009959e+00  2.09572607e+00  2.13228044e+00  2.16081490e+00  2.18856224e+00
  2.26534200e+00  2.30804636e+00  2.33935471e+00  2.40707097e+00  2.43136302e+00
  2.44672721e+00  2.53043941e+00  2.55700809e+00  2.63745568e+00  2.69993762e+00
  2.81052186e+00  2.89268406e+00  2.93246803e+00  4.06501431e+00  4.07953885e+00
  4.20410146e+00  4.34074571e+00  4.41913825e+00  4.55029224e+00
Alpha MO coefficients                      R   N=       17956
 -2.62192721e-05  1.02986732e-06 -2.31294735e-06  7.45346621e-06 -7.77382680e-06
  3.18612852e-06  2.19740886e-05 -3.27558045e-05  4.24138340e-05  1.00972933e-06
  3.74717927e-06  3.42960601e-06 -1.50816620e-06  4.43172273e-06  5.37695377e-08
  1.08918647e-04  2.85216148e-05  2.74781082e-05 -3.36882859e-05  3.88400480e-06
  1.86112862e-05 -2.90899367e-06 -8.48362165e-06  1.31141736e-05 -2.35912118e-04
 -1.01963102e-04  3.28349002e-05 -4.01941689e-05  7.10537125e-06  3.12575705e-06
  1.48561464e-06 -3.99628373e-06  3.57287072e-06  1.15022813e-06  1.35132910e-03
  2.48935352e-04  1.59960415e-04 -1.53941558e-04 -1.40713540e-06  1.65209017e-05
  1.73531173e-05 -5.31175055e-06  4.58416457e-06  1.53897377e-04 -2.21482569e-04
 -8.92658061e-06  4.19810702e-05 -2.24400072e-05 -1.26410156e-05 -6.19903809e-07
 -5.16122605e-06  8.61468093e-06  1.47890163e-05 -1.00791628e-03  9.20277049e-04
 -1.26453002e-04  2.90435170e-05 -4.39076045e-06 -5.19604680e-05 -3.01281048e-05
 -2.99464629e-06 -1.32485069e-05 -6.70575317e-05 -7.84948010e-06  2.63209605e-05
  1.74587593e-04 -1.85794807e-05 -1.39014776e-05  4.00812095e-05  7.13870720e-06
 -1.57263266e-05 -8.42718699e-06  2.68058162e-03  2.30932019e-04  3.23190875e-04
 -9.55072465e-04 -2.19993756e-05 -7.00399025e-05  3.81346701e-05 -1.87485005e-05
  4.48988413e-05  4.06702544e-05  8.96550377e-06 -3.02213708e-05  3.17134673e-04
  1.90663487e-05 -4.04525905e-05 -2.27322605e-04 -1.21279274e-04  9.42262166e-05
  6.21743738e-05 -3.91093081e-04 -1.09097967e-05  2.28895909e-05  1.03886065e-04
 -5.64470280e-03  8.93549333e-04  3.60989608e-04  1.82702824e-03 -3.46069746e-05
  3.29788548e-06  2.45624650e-05 -9.59311397e-05  5.45986923e-06  8.05402041e-05
  9.75399313e-06 -9.18241924e-05 -9.92596806e-01 -2.53904456e-02  6.44141993e-04
 -7.30124076e-04 -6.42749553e-04 -1.46158986e-02 -4.15752790e-04  5.42488643e-04
  4.19692119e-04  8.51733471e-03  8.54507701e-03  8.74886079e-03 -3.75505041e-05
 -1.77020542e-05 -3.79549355e-05  6.58064225e-03  2.53955005e-04 -5.69409091e-04
  4.99071820e-04 -3.51712906e-04  4.52208799e-04  1.56992472e-06 -9.34434474e-05
 -7.69522621e-05 -1.27321948e-04 -7.22391515e-06 -6.41453780e-07  9.92595385e-01
  2.53788809e-02  9.77938439e-04 -6.03182716e-05  6.38440890e-04  1.46943879e-02
 -6.59651992e-04  8.33618819e-05 -4.36554687e-04 -8.57033117e-03 -8.69341376e-03
 -8.56032415e-03 -4.92281348e-05 -6.74229695e-05 -9.09957284e-05 -6.22942073e-03
  4.08381467e-04 -5.79342827e-04  8.86273206e-05 -3.80169253e-05 -7.12671205e-06
 -1.09246074e-04 -2.73803961e-04 -1.56806446e-04 -4.80355998e-04  9.72498984e-05
 -1.88243577e-05  2.61876043e-04 -3.57757228e-05  2.76070559e-04  1.21042281e-05
  1.52137347e-04  7.63594049e-05  1.98374093e-04  2.76915783e-03 -6.48036631e-04
 -1.88992956e-03 -1.45057616e-03 -1.86113702e-08  4.22965882e-05  8.01275553e-06
  4.50204059e-06  1.65624242e-05  1.12877427e-04 -3.87972273e-04 -6.39837118e-05
 -6.90686284e-05  2.08593625e-06 -4.10003807e-05 -2.31815419e-06 -3.61186839e-05
 -1.18268823e-05 -1.86766967e-05 -4.15556501e-03  2.02905420e-04 -1.92894841e-04
 -2.37679909e-04 -1.51429130e-06 -1.76637168e-05 -1.75858020e-05 -8.79055395e-06
 -6.10136617e-06  1.41882715e-04  8.94862211e-05 -1.25610853e-04  1.39337776e-05
 -4.01819304e-06  1.80432491e-05  1.42885023e-06  1.75729105e-06 -3.85039283e-06
  1.21247807e-05 -9.24432657e-04 -2.25617629e-03 -1.31112983e-03  7.23559464e-04
 -3.42678665e-05  2.52574645e-04 -2.24467956e-05  3.66792784e-04 -3.67951287e-06
 -1.57972090e-05  1.28385047e-05  1.33009126e-05  9.18009753e-07  4.48400953e-05
 -3.48123307e-05 -5.31366440e-05 -8.32430732e-05 -4.49688335e-06 -9.40067865e-06
 -1.50653015e-07 -9.49437308e-07  1.65769874e-06  5.64967583e-07  4.62895275e-03
 -1.05844281e-03 -1.99179869e-04  5.54139270e-05  4.91687002e-06 -4.78955990e-05
  2.51992508e-06  1.29644065e-04 -9.56829338e-06  2.85906231e-04  4.16021275e-05
  4.89081119e-04 -2.73370840e-05 -4.22342739e-07 -1.41719907e-06 -1.48987088e-06
  3.77998478e-06 -1.76388701e-05  1.28700454e-05  1.80291418e-05 -3.96219058e-05
  4.42907822e-07 -1.76763799e-06 -5.78836356e-06  1.04318333e-06  2.41346009e-06
  3.19201825e-06 -2.30680365e-04 -8.06730760e-05 -5.63716550e-05  1.02481239e-05
 -5.37309141e-06  1.69492939e-05  3.56164732e-04 -5.29298793e-04 -7.11794758e-07
 -5.40158107e-05  1.03812833e-05  1.00545484e-05  8.01633733e-06  3.21220437e-05
 -1.97075139e-06  7.28925595e-06 -2.92766553e-06 -1.35178194e-04 -2.45634854e-05
 -4.15833030e-05  4.58810594e-05  1.58663098e-05  2.51192336e-05  3.27399552e-05
 -8.29047122e-06 -3.59455841e-06  2.38295513e-05  5.44790335e-04 -5.79570195e-06
  6.79810197e-05  2.67453535e-04 -3.49779862e-04 -2.46172284e-04 -3.09766091e-05
 -5.27711283e-05  2.74476324e-06  1.64371641e-03  8.67581403e-04  6.40851056e-04
 -1.87708642e-04  5.25630202e-06 -7.67031473e-05 -7.78565882e-05  3.51221902e-05
 -2.36915584e-05 -1.80140652e-05  4.59767503e-03  1.26935795e-03  1.17362640e-03
 -6.71320575e-05 -6.46206311e-05 -6.66585044e-05 -1.38342470e-04 -4.35721176e-05
  2.13917754e-05 -6.52647838e-04  1.12261917e-03 -7.24029318e-05 -5.62925088e-04
 -8.60004305e-05 -4.05703152e-05 -5.56691574e-05 -2.60838113e-06  1.75838335e-05
  8.73437805e-06 -9.61692994e-03  9.41642697e-05 -1.96247725e-03 -1.40443860e-03
  2.37631918e-03 -1.71991884e-04 -9.62746911e-05  3.49769432e-06 -1.32924688e-05
  4.99361809e-03  2.12640169e-03  4.98387095e-04 -6.66265197e-04 -3.31101690e-04
 -1.46169402e-04 -1.35280454e-04 -5.75058071e-05  4.49654166e-05 -5.47795271e-06
  1.57921932e-02  3.49460098e-03 -4.17558677e-04 -1.55825006e-03  1.02599277e-05
 -5.65708647e-04 -6.01117334e-05 -2.57322642e-04  9.93164119e-01  4.98870005e-02
 -2.49111130e-05  7.40921057e-05 -7.97337101e-04 -2.09244231e-02  1.12815605e-03
  4.81257663e-04  1.22579247e-03 -8.77696880e-03 -8.60719390e-03 -8.65094987e-03
 -5.67412429e-05  1.89066002e-05  2.46495957e-05 -1.31799664e-02  2.29052091e-03
  6.35228229e-04 -4.51497851e-04 -1.26938464e-04 -3.67498037e-04 -1.54681047e-04
 -1.90847505e-04 -3.87025171e-05 -2.18447640e-04 -6.04771521e-05 -3.44497376e-04
 -5.59680260e-05 -3.12807129e-05  1.41491952e-05  6.32422602e-06 -1.04161474e-04
  1.72590416e-03 -2.55649223e-04 -6.35476930e-05  7.78566431e-04  4.85410121e-05
  1.09583883e-04 -5.24071327e-04 -4.17618276e-05  6.66857045e-06  7.00761402e-05
  6.05000772e-03 -4.73363390e-04 -1.11046578e-04  2.14257923e-03 -4.59023897e-05
 -5.72685344e-04  2.70668126e-05 -2.52360885e-04  1.71327818e-05  3.34912176e-03
 -5.26027344e-05  2.91013630e-03 -4.93378534e-05  1.05732063e-05 -3.57265802e-05
 -5.98142219e-05 -4.03946714e-05  1.46960309e-03  3.80879513e-04  3.75672279e-04
  2.31881915e-04  2.88151479e-05 -3.12241454e-04 -4.81998445e-05 -2.17214274e-04
 -7.06656574e-05 -3.06922120e-04  5.69842187e-03  1.37264057e-03  1.78924498e-03
  1.02223095e-03  9.93158459e-01  4.98734714e-02 -2.49836990e-04 -6.64371259e-04
 -3.63650592e-04 -2.09812112e-02 -8.50828016e-04  5.15568740e-04  1.05878328e-03
 -8.77668604e-03 -8.62579444e-03 -8.64959564e-03 -3.06254811e-05  8.97673800e-05
  1.72289292e-05 -1.29566061e-02 -2.63099760e-03 -1.57528208e-03  1.61078471e-04
  2.20722257e-03 -2.29050655e-04  1.18783240e-04 -1.98561755e-05 -6.56619514e-05
  5.43079013e-03 -2.41370378e-03 -3.78458556e-04  8.11811483e-04 -3.02107362e-04
 -1.35436789e-04 -1.68670002e-04 -1.70138203e-05  1.03631142e-04  3.94287861e-06
  1.09115852e-02 -1.74297697e-03  9.02726724e-04  1.54060845e-03 -3.52817745e-05
  9.66891879e-06  9.29494095e-05  3.45864641e-05 -2.59568453e-05 -9.61802020e-04
 -6.53958935e-04  2.82482782e-04  5.84059857e-04 -4.25227027e-05 -2.91802178e-05
 -2.71164528e-05 -1.57318334e-05 -8.62193520e-07  8.11181392e-07 -1.08163646e-02
 -4.50017645e-03 -1.06704008e-03  1.69369529e-03 -1.40886303e-04 -3.33462040e-04
 -1.47350529e-04 -1.59808585e-04  2.53073582e-04 -2.11453529e-04  1.60561847e-05
  5.03054882e-05 -1.73774885e-05  1.51963093e-03 -5.32104961e-04 -6.27236639e-04
 -5.20099635e-05 -1.58800155e-05 -8.18476836e-05 -5.99966050e-05  3.30405608e-05
 -4.90370246e-06 -1.53574399e-05  1.08404198e-02 -2.40818696e-03 -6.57149252e-04
  5.64532215e-04  4.37945104e-06 -3.86936259e-04  3.08752606e-06 -3.37504150e-04
 -4.41726322e-05  3.25406458e-03 -1.80288010e-05  3.44280708e-03  1.26170125e-05
  6.31059022e-05  1.01228056e-05 -2.00024495e-05  7.27119124e-06 -4.33519840e-04
  1.70928143e-05  1.85766827e-04 -1.72386535e-04  4.34251869e-05  2.34695150e-05
  2.53496780e-05  5.20620979e-06  9.48098557e-06  1.65500222e-05  7.33374054e-05
 -1.39039744e-04 -3.76506751e-05  1.55995678e-04 -2.48261962e-06 -2.27034700e-04
 -5.50921703e-05 -5.05258660e-04 -5.55090127e-05 -5.58310371e-04  9.80324269e-06
 -1.45483052e-05 -3.49526668e-05 -1.71673019e-04 -4.52086485e-05 -3.95268728e-05
 -2.21867629e-05  8.36124093e-04  3.80085662e-04  3.92724515e-04  2.21903585e-04
 -7.05290806e-05 -4.70203314e-05 -1.35107157e-04  5.23188155e-05  3.57673444e-05
  2.52261267e-05  1.30327403e-03  2.75188661e-04 -6.87017509e-05  3.36371898e-05
 -2.58613153e-06  7.18435680e-06 -4.83570819e-05 -6.38323426e-05 -1.00469400e-06
 -9.83229571e-04 -1.66063311e-04  6.97059557e-04  4.89552008e-04 -4.76483397e-05
 -7.32402604e-05 -4.03732090e-05 -3.92288190e-05 -1.69183901e-05 -1.91656011e-05
 -5.49619491e-03 -1.27232329e-03  3.87959927e-04  7.37598556e-04  1.15511004e-02
  1.60896071e-04  1.36554457e-05 -1.00493771e-04 -8.38212294e-05  6.12733612e-03
  8.86871965e-04  2.45063086e-03  1.18984464e-03 -2.46246336e-04 -4.10064587e-04
 -3.02089385e-04 -3.23512082e-05 -6.39323449e-06 -1.29044142e-04  1.18628946e-02
 -1.78776847e-03  7.95041123e-04  1.54331418e-03  9.93025387e-01  5.05453247e-02
 -1.77987580e-05 -7.15335128e-06 -3.36482539e-05 -2.22028813e-02 -5.29653302e-04
  9.83745197e-04  1.05562483e-03 -8.91965000e-03 -8.90505449e-03 -8.78934662e-03
 -9.73650796e-05  2.95418899e-05 -9.05360716e-05 -7.21966934e-03  1.70257388e-03
  1.93028572e-03  4.93126750e-04 -1.51763015e-04 -2.61275135e-04 -1.98115559e-04
 -7.73923875e-05 -2.60581268e-03 -3.67107765e-04  7.35448400e-05  1.31405018e-05
 -2.03805314e-05  4.72027868e-03 -2.45185130e-03 -1.10573344e-03  1.08507651e-03
 -2.81185271e-04 -7.98540281e-05 -1.75804317e-04 -4.86318561e-05  1.00842386e-04
  1.71417769e-05 -9.39404833e-04  4.35857833e-04 -4.07019845e-04 -1.21610928e-04
 -3.62204540e-05  3.85631365e-03 -2.63273830e-05  3.97153816e-03  5.36235502e-06
 -2.27438640e-04 -1.47508547e-06 -2.79607647e-04 -2.95458985e-05 -1.50266215e-04
  7.04676767e-05 -1.58291676e-05 -6.17424486e-05  2.50652232e-04 -1.51144802e-04
  2.08374197e-04  1.53929351e-04 -2.10349097e-05 -1.89398720e-04 -4.98822668e-05
  3.44580152e-06 -3.32653048e-05 -3.39966408e-05  2.16498761e-03 -5.88154809e-04
  3.87711951e-04  5.25425641e-04 -4.75130784e-05 -9.63618246e-04 -4.53778337e-05
 -2.94470446e-04 -2.12375154e-04 -7.82496669e-05 -1.18504584e-04 -1.31167014e-05
  9.19778456e-06  2.36855304e-05 -3.15134355e-05 -1.20401561e-05 -9.62092312e-06
 -5.12883447e-04 -1.07108370e-04 -1.74109066e-04  4.11088247e-05  7.56462102e-05
 -3.73683310e-06 -1.80436492e-05  1.12899896e-06 -5.63435988e-05  4.57772803e-05
  1.39669602e-03  4.53113716e-04  1.14186614e-04  1.73880943e-04 -2.45330627e-03
 -4.20836437e-04 -9.63612403e-05  4.15206177e-06  4.97895650e-05  5.34401239e-03
  2.62817058e-03  7.24794355e-04 -9.04913422e-04 -2.98662420e-04 -1.00252818e-04
 -1.13301565e-04 -4.02578236e-05  1.16116922e-04  7.21180341e-06 -1.51987366e-03
 -5.50774454e-04  1.49924832e-04  2.89116901e-04  9.93013747e-01  5.05746946e-02
  1.89175382e-05  4.36224260e-05  1.18371239e-04 -2.22183104e-02  7.70472112e-04
 -8.57899118e-04 -9.51490166e-04 -8.94553042e-03 -8.91098581e-03 -8.81618278e-03
 -8.82572520e-05  4.39365211e-05 -6.68345676e-05 -4.11376354e-03 -1.33944673e-03
 -9.11277309e-04  1.29301699e-04 -1.18291499e-02 -9.14084088e-04 -9.05557252e-06
  7.91171961e-05  1.03097114e-04  5.67141867e-03 -1.24601467e-03 -2.31600770e-03
 -1.11805432e-03 -6.03315191e-05 -2.27241771e-04 -8.72286526e-05 -6.87403337e-05
  2.07296633e-06 -1.32125288e-04  9.32988071e-03  1.80805492e-03 -6.91623763e-04
 -1.39508312e-03 -6.65528172e-09  3.78264365e-03 -6.55348653e-06  3.71848813e-03
  3.75360695e-05 -1.75175705e-04  9.47024313e-05  9.81947150e-05  6.20025055e-06
  4.90425163e-04 -6.78188913e-05 -1.54119738e-04 -4.02742253e-04 -6.17515992e-05
 -4.92405280e-05 -8.31315712e-06  1.69596033e-07 -1.68363333e-05  4.28004447e-05
 -4.29907725e-03  8.68739076e-04  3.04255930e-04 -6.09957833e-04 -1.62193499e-04
 -1.74033437e-04 -1.62979989e-04 -4.13207716e-04 -1.83879187e-04  8.76427536e-05
 -2.02794741e-04  8.04827411e-05  1.94129270e-05  1.03390848e-04 -1.27120391e-05
  3.02739284e-06  2.59778003e-05 -5.02157652e-04  1.25284794e-04  6.34770746e-05
 -2.57559846e-04  2.77494996e-05  6.14286004e-05  4.55685984e-05  9.82118799e-06
  2.53083800e-05  2.65805437e-05 -9.69761517e-04  3.76234289e-04 -3.68677723e-04
 -7.95352421e-05  3.01403307e-05  3.68635986e-04  3.94847742e-06 -4.79211311e-04
 -1.23412347e-05 -2.95317143e-04 -3.41979275e-05  3.67805248e-04  1.19842133e-02
 -2.64898775e-02 -5.65979882e-03 -5.55050848e-04 -3.74071924e-03 -2.64033723e-02
 -3.28866206e-03  3.31087976e-05 -2.18712653e-03 -2.16832352e-04 -7.24569306e-04
  3.38963037e-04  3.90261873e-04 -6.32805351e-04 -1.50316945e-04 -1.90928174e-04
  8.34650550e-05  2.98133924e-04 -1.21094717e-03  5.12859963e-03 -9.57731477e-03
  8.83363330e-04  4.62901150e-03  2.65557588e-03 -4.77312178e-03 -4.11768144e-04
 -1.44648711e-03  5.98787135e-04  2.14821754e-04 -6.47268851e-04  2.15594455e-04
 -5.39439557e-04 -1.79844775e-04 -5.57107285e-04  8.02931683e-02  1.64814497e-02
  5.51377581e-03 -2.03071056e-03  5.85996247e-03 -9.34470943e-03 -1.99799679e-03
 -4.17793759e-03 -1.54076475e-04 -1.03655348e-02 -4.14093107e-03  1.61697330e-04
 -3.49433616e-05 -2.09415235e-04 -4.72646129e-04  2.86056536e-04 -8.21767602e-04