Generated by Psi4
     FORCE                           RHF                       TESTBAS
Number of atoms                            I               31
Charge                                     I                0
Multiplicity                               I                1
Number of electrons                        I              104
Number of alpha electrons                  I               52
Number of beta electrons                   I               52
Number of basis functions                  I              300
Number of independent functions            I              300
Atomic numbers                             I   N=          31
           6           7           6           6           1           1
           6           6           6           1           1           1
           1           6           6           6           6           6
           6           1           1           1           8           1
           1           1           1           1           1           1
           1
Nuclear charges                            R   N=          31
  6.00000000e+00  7.00000000e+00  6.00000000e+00  6.00000000e+00  1.00000000e+00
  1.00000000e+00  6.00000000e+00  6.00000000e+00  6.00000000e+00  1.00000000e+00
  1.00000000e+00  1.00000000e+00  1.00000000e+00  6.00000000e+00  6.00000000e+00
  6.00000000e+00  6.00000000e+00  6.00000000e+00  6.00000000e+00  1.00000000e+00
  1.00000000e+00  1.00000000e+00  8.00000000e+00  1.00000000e+00  1.00000000e+00
  1.00000000e+00  1.00000000e+00  1.00000000e+00  1.00000000e+00  1.00000000e+00
  1.00000000e+00
Current cartesian coordinates              R   N=          93
  3.41218612e+00 -1.15542017e+00 -7.60979909e+00  2.67213674e+00 -8.29559062e-01
 -4.97954299e+00  9.05076271e-01 -2.78717815e+00 -4.15785266e+00  3.37137951e-01
 -2.57737676e+00 -1.32582381e+00  1.74418235e+00 -4.63907410e+00 -4.55518768e+00
 -8.77347083e-01 -2.70513972e+00 -5.27571101e+00 -6.66858439e-01  6.67920177e-02
 -5.79685627e-01  1.11949171e+00  2.10215197e+00 -1.68539859e+00  1.65432346e+00
  1.69355316e+00 -4.50213188e+00  2.92200495e+00  2.05828766e+00 -6.68482527e-01
  2.70190170e-01  3.96729619e+00 -1.38367308e+00  3.03723174e+00  3.09365312e+00
 -5.14925892e+00 -8.59596875e-02  2.02734097e+00 -5.63941449e+00 -8.95308911e-01
  3.25480180e-01  2.28843415e+00 -3.23029126e+00  8.05300960e-01  3.44335778e+00
  1.24804216e+00  8.56627716e-02  3.83568729e+00  1.06643141e+00  3.17755452e-01
  6.45754537e+00 -1.27181404e+00  7.96311830e-01  7.58953444e+00 -3.41440878e+00
  1.03816400e+00  6.06986954e+00  3.08871470e+00 -2.86614011e-01  3.00166622e+00
 -4.90091713e+00  9.95128872e-01  2.27482257e+00 -1.41761260e+00  9.77737373e-01
  9.63071671e+00 -3.17277585e+00  4.08399365e-01 -1.58562514e+00  2.08168858e+00
 -2.96823770e+00 -2.82339162e-01 -1.06198016e+00 -4.00082165e+00 -7.71384315e-01
  4.26627536e+00 -3.02302830e+00 -7.87008286e+00  4.81782152e+00  2.74793755e-01
 -8.12344119e+00  1.79614925e+00 -9.86885652e-01 -8.93424292e+00 -5.24579634e+00
  1.41054808e+00  6.92459506e+00  2.75415038e+00  1.24121076e-01  7.61348764e+00
 -3.10563869e+00  2.57379890e-01 -3.40908644e+00
Integer atomic weights                     I   N=          31
          12          14          12          12           1           1
          12          12          12           1           1           1
           1          12          12          12          12          12
          12           1           1           1          15           1
           1           1           1           1           1           1
           1
Real atomic weights                        R   N=          31
  1.20000000e+01  1.40030740e+01  1.20000000e+01  1.20000000e+01  1.00782503e+00
  1.00782503e+00  1.20000000e+01  1.20000000e+01  1.20000000e+01  1.00782503e+00
  1.00782503e+00  1.00782503e+00  1.00782503e+00  1.20000000e+01  1.20000000e+01
  1.20000000e+01  1.20000000e+01  1.20000000e+01  1.20000000e+01  1.00782503e+00
  1.00782503e+00  1.00782503e+00  1.59949146e+01  1.00782503e+00  1.00782503e+00
  1.00782503e+00  1.00782503e+00  1.00782503e+00  1.00782503e+00  1.00782503e+00
  1.00782503e+00
Number of primitive shells                 I              306
Number of contracted shells                I              146
Pure/Cartesian d shells                    I                1
Pure/Cartesian f shells                    I                1
Highest angular momentum                   I                2
Largest degree of contraction              I                6
Shell types                                I   N=         146
           0           0           1           0           1           2
           0           1           0           0           1           0
           1           2           0           1           0           0
           1           0           1           2           0           1
           0           0           1           0           1           2
           0           1           0           0           0           0
           0           0           1           0           1           2
           0           1           0           0           1           0
           1           2           0           1           0           0
           1           0           1           2           0           1
           0           0           0           0           0           0
           0           0           0           0           1           0
           1           2           0           1           0           0
           1           0           1           2           0           1
           0           0           1           0           1           2
           0           1           0           0           1           0
           1           2           0           1           0           0
           1           0           1           2           0           1
           0           0           1           0           1           2
           0           1           0           0           0           0
           0           0           0           0           1           0
           1           2           0           1           0           0
           0           0           0           0           0           0
           0           0           0           0           0           0
           0           0
Number of primitives per shell             I   N=         146
           6           3           3           1           1           1
           1           1           6           3           3           1
           1           1           1           1           6           3
           3           1           1           1           1           1
           6           3           3           1           1           1
           1           1           3           1           3           1
           6           3           3           1           1           1
           1           1           6           3           3           1
           1           1           1           1           6           3
           3           1           1           1           1           1
           3           1           3           1           3           1
           3           1           6           3           3           1
           1           1           1           1           6           3
           3           1           1           1           1           1
           6           3           3           1           1           1
           1           1           6           3           3           1
           1           1           1           1           6           3
           3           1           1           1           1           1
           6           3           3           1           1           1
           1           1           3           1           3           1
           3           1           6           3           3           1
           1           1           1           1           3           1
           3           1           3           1           3           1
           3           1           3           1           3           1
           3           1
Shell to atom map                          I   N=         146
           1           1           1           1           1           1
           1           1           2           2           2           2
           2           2           2           2           3           3
           3           3           3           3           3           3
           4           4           4           4           4           4
           4           4           5           5           6           6
           7           7           7           7           7           7
           7           7           8           8           8           8
           8           8           8           8           9           9
           9           9           9           9           9           9
          10          10          11          11          12          12
          13          13          14          14          14          14
          14          14          14          14          15          15
          15          15          15          15          15          15
          16          16          16          16          16          16
          16          16          17          17          17          17
          17          17          17          17          18          18
          18          18          18          18          18          18
          19          19          19          19          19          19
          19          19          20          20          21          21
          22          22          23          23          23          23
          23          23          23          23          24          24
          25          25          26          26          27          27
          28          28          29          29          30          30
          31          31
Primitive exponents                        R   N=         306
  3.04752490e+03  4.57369510e+02  1.03948690e+02  2.92101550e+01  9.28666300e+00
  3.16392700e+00  7.86827240e+00  1.88128850e+00  5.44249300e-01  7.86827240e+00
  1.88128850e+00  5.44249300e-01  1.68714400e-01  1.68714400e-01  8.00000000e-01
  4.38000000e-02  4.38000000e-02  4.17351100e+03  6.27457900e+02  1.42902100e+02
  4.02343300e+01  1.28202100e+01  4.39043700e+00  1.16263580e+01  2.71628000e+00
  7.72218000e-01  1.16263580e+01  2.71628000e+00  7.72218000e-01  2.12031300e-01
  2.12031300e-01  8.00000000e-01  6.39000000e-02  6.39000000e-02  3.04752490e+03
  4.57369510e+02  1.03948690e+02  2.92101550e+01  9.28666300e+00  3.16392700e+00
  7.86827240e+00  1.88128850e+00  5.44249300e-01  7.86827240e+00  1.88128850e+00
  5.44249300e-01  1.68714400e-01  1.68714400e-01  8.00000000e-01  4.38000000e-02
  4.38000000e-02  3.04752490e+03  4.57369510e+02  1.03948690e+02  2.92101550e+01
  9.28666300e+00  3.16392700e+00  7.86827240e+00  1.88128850e+00  5.44249300e-01
  7.86827240e+00  1.88128850e+00  5.44249300e-01  1.68714400e-01  1.68714400e-01
  8.00000000e-01  4.38000000e-02  4.38000000e-02  1.87311370e+01  2.82539370e+00
  6.40121700e-01  1.61277800e-01  1.87311370e+01  2.82539370e+00  6.40121700e-01
  1.61277800e-01  3.04752490e+03  4.57369510e+02  1.03948690e+02  2.92101550e+01
  9.28666300e+00  3.16392700e+00  7.86827240e+00  1.88128850e+00  5.44249300e-01
  7.86827240e+00  1.88128850e+00  5.44249300e-01  1.68714400e-01  1.68714400e-01
  8.00000000e-01  4.38000000e-02  4.38000000e-02  3.04752490e+03  4.57369510e+02
  1.03948690e+02  2.92101550e+01  9.28666300e+00  3.16392700e+00  7.86827240e+00
  1.88128850e+00  5.44249300e-01  7.86827240e+00  1.88128850e+00  5.44249300e-01
  1.68714400e-01  1.68714400e-01  8.00000000e-01  4.38000000e-02  4.38000000e-02
  3.04752490e+03  4.57369510e+02  1.03948690e+02  2.92101550e+01  9.28666300e+00
  3.16392700e+00  7.86827240e+00  1.88128850e+00  5.44249300e-01  7.86827240e+00
  1.88128850e+00  5.44249300e-01  1.68714400e-01  1.68714400e-01  8.00000000e-01
  4.38000000e-02  4.38000000e-02  1.87311370e+01  2.82539370e+00  6.40121700e-01
  1.61277800e-01  1.87311370e+01  2.82539370e+00  6.40121700e-01  1.61277800e-01
  1.87311370e+01  2.82539370e+00  6.40121700e-01  1.61277800e-01  1.87311370e+01
  2.82539370e+00  6.40121700e-01  1.61277800e-01  3.04752490e+03  4.57369510e+02
  1.03948690e+02  2.92101550e+01  9.28666300e+00  3.16392700e+00  7.86827240e+00
  1.88128850e+00  5.44249300e-01  7.86827240e+00  1.88128850e+00  5.44249300e-01
  1.68714400e-01  1.68714400e-01  8.00000000e-01  4.38000000e-02  4.38000000e-02
  3.04752490e+03  4.57369510e+02  1.03948690e+02  2.92101550e+01  9.28666300e+00
  3.16392700e+00  7.86827240e+00  1.88128850e+00  5.44249300e-01  7.86827240e+00
  1.88128850e+00  5.44249300e-01  1.68714400e-01  1.68714400e-01  8.00000000e-01
  4.38000000e-02  4.38000000e-02  3.04752490e+03  4.57369510e+02  1.03948690e+02
  2.92101550e+01  9.28666300e+00  3.16392700e+00  7.86827240e+00  1.88128850e+00
  5.44249300e-01  7.86827240e+00  1.88128850e+00  5.44249300e-01  1.68714400e-01
  1.68714400e-01  8.00000000e-01  4.38000000e-02  4.38000000e-02  3.04752490e+03
  4.57369510e+02  1.03948690e+02  2.92101550e+01  9.28666300e+00  3.16392700e+00
  7.86827240e+00  1.88128850e+00  5.44249300e-01  7.86827240e+00  1.88128850e+00
  5.44249300e-01  1.68714400e-01  1.68714400e-01  8.00000000e-01  4.38000000e-02
  4.38000000e-02  3.04752490e+03  4.57369510e+02  1.03948690e+02  2.92101550e+01
  9.28666300e+00  3.16392700e+00  7.86827240e+00  1.88128850e+00  5.44249300e-01
  7.86827240e+00  1.88128850e+00  5.44249300e-01  1.68714400e-01  1.68714400e-01
  8.00000000e-01  4.38000000e-02  4.38000000e-02  3.04752490e+03  4.57369510e+02
  1.03948690e+02  2.92101550e+01  9.28666300e+00  3.16392700e+00  7.86827240e+00
  1.88128850e+00  5.44249300e-01  7.86827240e+00  1.88128850e+00  5.44249300e-01
  1.68714400e-01  1.68714400e-01  8.00000000e-01  4.38000000e-02  4.38000000e-02
  1.87311370e+01  2.82539370e+00  6.40121700e-01  1.61277800e-01  1.87311370e+01
  2.82539370e+00  6.40121700e-01  1.61277800e-01  1.87311370e+01  2.82539370e+00
  6.40121700e-01  1.61277800e-01  5.48467170e+03  8.25234950e+02  1.88046960e+02
  5.29645000e+01  1.68975700e+01  5.79963530e+00  1.55396160e+01  3.59993360e+00
  1.01376180e+00  1.55396160e+01  3.59993360e+00  1.01376180e+00  2.70005800e-01
  2.70005800e-01  8.00000000e-01  8.45000000e-02  8.45000000e-02  1.87311370e+01
  2.82539370e+00  6.40121700e-01  1.61277800e-01  1.87311370e+01  2.82539370e+00
  6.40121700e-01  1.61277800e-01  1.87311370e+01  2.82539370e+00  6.40121700e-01
  1.61277800e-01  1.87311370e+01  2.82539370e+00  6.40121700e-01  1.61277800e-01
  1.87311370e+01  2.82539370e+00  6.40121700e-01  1.61277800e-01  1.87311370e+01
  2.82539370e+00  6.40121700e-01  1.61277800e-01  1.87311370e+01  2.82539370e+00
  6.40121700e-01  1.61277800e-01  1.87311370e+01  2.82539370e+00  6.40121700e-01
  1.61277800e-01
Contraction coefficients                   R   N=         306
  1.83470016e-03  1.40373012e-02  6.88426061e-02  2.32184421e-01  4.67941342e-01
  3.62312032e-01 -1.19332409e-01 -1.60854212e-01  1.14345648e+00  6.89990956e-02
  3.16423980e-01  7.44308252e-01  1.00000000e+00  1.00000000e+00  1.00000000e+00
  1.00000000e+00  1.00000000e+00  1.83479944e-03  1.39949958e-02  6.85869792e-02
  2.32240930e-01  4.69069858e-01  3.60454891e-01 -1.14961023e-01 -1.69118034e-01
  1.14585223e+00  6.75800232e-02  3.23907111e-01  7.40895255e-01  1.00000000e+00
  1.00000000e+00  1.00000000e+00  1.00000000e+00  1.00000000e+00  1.83470016e-03
  1.40373012e-02  6.88426061e-02  2.32184421e-01  4.67941342e-01  3.62312032e-01
 -1.19332409e-01 -1.60854212e-01  1.14345648e+00  6.89990956e-02  3.16423980e-01
  7.44308252e-01  1.00000000e+00  1.00000000e+00  1.00000000e+00  1.00000000e+00
  1.00000000e+00  1.83470016e-03  1.40373012e-02  6.88426061e-02  2.32184421e-01
  4.67941342e-01  3.62312032e-01 -1.19332409e-01 -1.60854212e-01  1.14345648e+00
  6.89990956e-02  3.16423980e-01  7.44308252e-01  1.00000000e+00  1.00000000e+00
  1.00000000e+00  1.00000000e+00  1.00000000e+00  3.34945995e-02  2.34726947e-01
  8.13757318e-01  1.00000000e+00  3.34945995e-02  2.34726947e-01  8.13757318e-01
  1.00000000e+00  1.83470016e-03  1.40373012e-02  6.88426061e-02  2.32184421e-01
  4.67941342e-01  3.62312032e-01 -1.19332409e-01 -1.60854212e-01  1.14345648e+00
  6.89990956e-02  3.16423980e-01  7.44308252e-01  1.00000000e+00  1.00000000e+00
  1.00000000e+00  1.00000000e+00  1.00000000e+00  1.83470016e-03  1.40373012e-02
  6.88426061e-02  2.32184421e-01  4.67941342e-01  3.62312032e-01 -1.19332409e-01
 -1.60854212e-01  1.14345648e+00  6.89990956e-02  3.16423980e-01  7.44308252e-01
  1.00000000e+00  1.00000000e+00  1.00000000e+00  1.00000000e+00  1.00000000e+00
  1.83470016e-03  1.40373012e-02  6.88426061e-02  2.32184421e-01  4.67941342e-01
  3.62312032e-01 -1.19332409e-01 -1.60854212e-01  1.14345648e+00  6.89990956e-02
  3.16423980e-01  7.44308252e-01  1.00000000e+00  1.00000000e+00  1.00000000e+00
  1.00000000e+00  1.00000000e+00  3.34945995e-02  2.34726947e-01  8.13757318e-01
  1.00000000e+00  3.34945995e-02  2.34726947e-01  8.13757318e-01  1.00000000e+00
  3.34945995e-02  2.34726947e-01  8.13757318e-01  1.00000000e+00  3.34945995e-02
  2.34726947e-01  8.13757318e-01  1.00000000e+00  1.83470016e-03  1.40373012e-02
  6.88426061e-02  2.32184421e-01  4.67941342e-01  3.62312032e-01 -1.19332409e-01
 -1.60854212e-01  1.14345648e+00  6.89990956e-02  3.16423980e-01  7.44308252e-01
  1.00000000e+00  1.00000000e+00  1.00000000e+00  1.00000000e+00  1.00000000e+00
  1.83470016e-03  1.40373012e-02  6.88426061e-02  2.32184421e-01  4.67941342e-01
  3.62312032e-01 -1.19332409e-01 -1.60854212e-01  1.14345648e+00  6.89990956e-02
  3.16423980e-01  7.44308252e-01  1.00000000e+00  1.00000000e+00  1.00000000e+00
  1.00000000e+00  1.00000000e+00  1.83470016e-03  1.40373012e-02  6.88426061e-02
  2.32184421e-01  4.67941342e-01  3.62312032e-01 -1.19332409e-01 -1.60854212e-01
  1.14345648e+00  6.89990956e-02  3.16423980e-01  7.44308252e-01  1.00000000e+00
  1.00000000e+00  1.00000000e+00  1.00000000e+00  1.00000000e+00  1.83470016e-03
  1.40373012e-02  6.88426061e-02  2.32184421e-01  4.67941342e-01  3.62312032e-01
 -1.19332409e-01 -1.60854212e-01  1.14345648e+00  6.89990956e-02  3.16423980e-01
  7.44308252e-01  1.00000000e+00  1.00000000e+00  1.00000000e+00  1.00000000e+00
  1.00000000e+00  1.83470016e-03  1.40373012e-02  6.88426061e-02  2.32184421e-01
  4.67941342e-01  3.62312032e-01 -1.19332409e-01 -1.60854212e-01  1.14345648e+00
  6.89990956e-02  3.16423980e-01  7.44308252e-01  1.00000000e+00  1.00000000e+00
  1.00000000e+00  1.00000000e+00  1.00000000e+00  1.83470016e-03  1.40373012e-02
  6.88426061e-02  2.32184421e-01  4.67941342e-01  3.62312032e-01 -1.19332409e-01
 -1.60854212e-01  1.14345648e+00  6.89990956e-02  3.16423980e-01  7.44308252e-01
  1.00000000e+00  1.00000000e+00  1.00000000e+00  1.00000000e+00  1.00000000e+00
  3.34945995e-02  2.34726947e-01  8.13757318e-01  1.00000000e+00  3.34945995e-02
  2.34726947e-01  8.13757318e-01  1.00000000e+00  3.34945995e-02  2.34726947e-01
  8.13757318e-01  1.00000000e+00  1.83109981e-03  1.39500985e-02  6.84450927e-02
  2.32714275e-01  4.70192950e-01  3.58520862e-01 -1.10777504e-01 -1.48026305e-01
  1.13076704e+00  7.08742995e-02  3.39752798e-01  7.27158595e-01  1.00000000e+00
  1.00000000e+00  1.00000000e+00  1.00000000e+00  1.00000000e+00  3.34945995e-02
  2.34726947e-01  8.13757318e-01  1.00000000e+00  3.34945995e-02  2.34726947e-01
  8.13757318e-01  1.00000000e+00  3.34945995e-02  2.34726947e-01  8.13757318e-01
  1.00000000e+00  3.34945995e-02  2.34726947e-01  8.13757318e-01  1.00000000e+00
  3.34945995e-02  2.34726947e-01  8.13757318e-01  1.00000000e+00  3.34945995e-02
  2.34726947e-01  8.13757318e-01  1.00000000e+00  3.34945995e-02  2.34726947e-01
  8.13757318e-01  1.00000000e+00  3.34945995e-02  2.34726947e-01  8.13757318e-01
  1.00000000e+00
Coordinates of each shell                  R   N=         438
  3.41218612e+00 -1.15542017e+00 -7.60979909e+00  3.41218612e+00 -1.15542017e+00
 -7.60979909e+00  3.41218612e+00 -1.15542017e+00 -7.60979909e+00  3.41218612e+00
 -1.15542017e+00 -7.60979909e+00  3.41218612e+00 -1.15542017e+00 -7.60979909e+00
  3.41218612e+00 -1.15542017e+00 -7.60979909e+00  3.41218612e+00 -1.15542017e+00
 -7.60979909e+00  3.41218612e+00 -1.15542017e+00 -7.60979909e+00  2.67213674e+00
 -8.29559062e-01 -4.97954299e+00  2.67213674e+00 -8.29559062e-01 -4.97954299e+00
  2.67213674e+00 -8.29559062e-01 -4.97954299e+00  2.67213674e+00 -8.29559062e-01
 -4.97954299e+00  2.67213674e+00 -8.29559062e-01 -4.97954299e+00  2.67213674e+00
 -8.29559062e-01 -4.97954299e+00  2.67213674e+00 -8.29559062e-01 -4.97954299e+00
  2.67213674e+00 -8.29559062e-01 -4.97954299e+00  9.05076271e-01 -2.78717815e+00
 -4.15785266e+00  9.05076271e-01 -2.78717815e+00 -4.15785266e+00  9.05076271e-01
 -2.78717815e+00 -4.15785266e+00  9.05076271e-01 -2.78717815e+00 -4.15785266e+00
  9.05076271e-01 -2.78717815e+00 -4.15785266e+00  9.05076271e-01 -2.78717815e+00
 -4.15785266e+00  9.05076271e-01 -2.78717815e+00 -4.15785266e+00  9.05076271e-01
 -2.78717815e+00 -4.15785266e+00  3.37137951e-01 -2.57737676e+00 -1.32582381e+00
  3.37137951e-01 -2.57737676e+00 -1.32582381e+00  3.37137951e-01 -2.57737676e+00
 -1.32582381e+00  3.37137951e-01 -2.57737676e+00 -1.32582381e+00  3.37137951e-01
 -2.57737676e+00 -1.32582381e+00  3.37137951e-01 -2.57737676e+00 -1.32582381e+00
  3.37137951e-01 -2.57737676e+00 -1.32582381e+00  3.37137951e-01 -2.57737676e+00
 -1.32582381e+00  1.74418235e+00 -4.63907410e+00 -4.55518768e+00  1.74418235e+00
 -4.63907410e+00 -4.55518768e+00 -8.77347083e-01 -2.70513972e+00 -5.27571101e+00
 -8.77347083e-01 -2.70513972e+00 -5.27571101e+00 -6.66858439e-01  6.67920177e-02
 -5.79685627e-01 -6.66858439e-01  6.67920177e-02 -5.79685627e-01 -6.66858439e-01
  6.67920177e-02 -5.79685627e-01 -6.66858439e-01  6.67920177e-02 -5.79685627e-01
 -6.66858439e-01  6.67920177e-02 -5.79685627e-01 -6.66858439e-01  6.67920177e-02
 -5.79685627e-01 -6.66858439e-01  6.67920177e-02 -5.79685627e-01 -6.66858439e-01
  6.67920177e-02 -5.79685627e-01  1.11949171e+00  2.10215197e+00 -1.68539859e+00
  1.11949171e+00  2.10215197e+00 -1.68539859e+00  1.11949171e+00  2.10215197e+00
 -1.68539859e+00  1.11949171e+00  2.10215197e+00 -1.68539859e+00  1.11949171e+00
  2.10215197e+00 -1.68539859e+00  1.11949171e+00  2.10215197e+00 -1.68539859e+00
  1.11949171e+00  2.10215197e+00 -1.68539859e+00  1.11949171e+00  2.10215197e+00
 -1.68539859e+00  1.65432346e+00  1.69355316e+00 -4.50213188e+00  1.65432346e+00
  1.69355316e+00 -4.50213188e+00  1.65432346e+00  1.69355316e+00 -4.50213188e+00
  1.65432346e+00  1.69355316e+00 -4.50213188e+00  1.65432346e+00  1.69355316e+00
 -4.50213188e+00  1.65432346e+00  1.69355316e+00 -4.50213188e+00  1.65432346e+00
  1.69355316e+00 -4.50213188e+00  1.65432346e+00  1.69355316e+00 -4.50213188e+00
  2.92200495e+00  2.05828766e+00 -6.68482527e-01  2.92200495e+00  2.05828766e+00
 -6.68482527e-01  2.70190170e-01  3.96729619e+00 -1.38367308e+00  2.70190170e-01
  3.96729619e+00 -1.38367308e+00  3.03723174e+00  3.09365312e+00 -5.14925892e+00
  3.03723174e+00  3.09365312e+00 -5.14925892e+00 -8.59596875e-02  2.02734097e+00
 -5.63941449e+00 -8.59596875e-02  2.02734097e+00 -5.63941449e+00 -8.95308911e-01
  3.25480180e-01  2.28843415e+00 -8.95308911e-01  3.25480180e-01  2.28843415e+00
 -8.95308911e-01  3.25480180e-01  2.28843415e+00 -8.95308911e-01  3.25480180e-01
  2.28843415e+00 -8.95308911e-01  3.25480180e-01  2.28843415e+00 -8.95308911e-01
  3.25480180e-01  2.28843415e+00 -8.95308911e-01  3.25480180e-01  2.28843415e+00
 -8.95308911e-01  3.25480180e-01  2.28843415e+00 -3.23029126e+00  8.05300960e-01
  3.44335778e+00 -3.23029126e+00  8.05300960e-01  3.44335778e+00 -3.23029126e+00
  8.05300960e-01  3.44335778e+00 -3.23029126e+00  8.05300960e-01  3.44335778e+00
 -3.23029126e+00  8.05300960e-01  3.44335778e+00 -3.23029126e+00  8.05300960e-01
  3.44335778e+00 -3.23029126e+00  8.05300960e-01  3.44335778e+00 -3.23029126e+00
  8.05300960e-01  3.44335778e+00  1.24804216e+00  8.56627716e-02  3.83568729e+00
  1.24804216e+00  8.56627716e-02  3.83568729e+00  1.24804216e+00  8.56627716e-02
  3.83568729e+00  1.24804216e+00  8.56627716e-02  3.83568729e+00  1.24804216e+00
  8.56627716e-02  3.83568729e+00  1.24804216e+00  8.56627716e-02  3.83568729e+00
  1.24804216e+00  8.56627716e-02  3.83568729e+00  1.24804216e+00  8.56627716e-02
  3.83568729e+00  1.06643141e+00  3.17755452e-01  6.45754537e+00  1.06643141e+00
  3.17755452e-01  6.45754537e+00  1.06643141e+00  3.17755452e-01  6.45754537e+00
  1.06643141e+00  3.17755452e-01  6.45754537e+00  1.06643141e+00  3.17755452e-01
  6.45754537e+00  1.06643141e+00  3.17755452e-01  6.45754537e+00  1.06643141e+00
  3.17755452e-01  6.45754537e+00  1.06643141e+00  3.17755452e-01  6.45754537e+00
 -1.27181404e+00  7.96311830e-01  7.58953444e+00 -1.27181404e+00  7.96311830e-01
  7.58953444e+00 -1.27181404e+00  7.96311830e-01  7.58953444e+00 -1.27181404e+00
  7.96311830e-01  7.58953444e+00 -1.27181404e+00  7.96311830e-01  7.58953444e+00
 -1.27181404e+00  7.96311830e-01  7.58953444e+00 -1.27181404e+00  7.96311830e-01
  7.58953444e+00 -1.27181404e+00  7.96311830e-01  7.58953444e+00 -3.41440878e+00
  1.03816400e+00  6.06986954e+00 -3.41440878e+00  1.03816400e+00  6.06986954e+00
 -3.41440878e+00  1.03816400e+00  6.06986954e+00 -3.41440878e+00  1.03816400e+00
  6.06986954e+00 -3.41440878e+00  1.03816400e+00  6.06986954e+00 -3.41440878e+00
  1.03816400e+00  6.06986954e+00 -3.41440878e+00  1.03816400e+00  6.06986954e+00
 -3.41440878e+00  1.03816400e+00  6.06986954e+00  3.08871470e+00 -2.86614011e-01
  3.00166622e+00  3.08871470e+00 -2.86614011e-01  3.00166622e+00 -4.90091713e+00
  9.95128872e-01  2.27482257e+00 -4.90091713e+00  9.95128872e-01  2.27482257e+00
 -1.41761260e+00  9.77737373e-01  9.63071671e+00 -1.41761260e+00  9.77737373e-01
  9.63071671e+00 -3.17277585e+00  4.08399365e-01 -1.58562514e+00 -3.17277585e+00
  4.08399365e-01 -1.58562514e+00 -3.17277585e+00  4.08399365e-01 -1.58562514e+00
 -3.17277585e+00  4.08399365e-01 -1.58562514e+00 -3.17277585e+00  4.08399365e-01
 -1.58562514e+00 -3.17277585e+00  4.08399365e-01 -1.58562514e+00 -3.17277585e+00
  4.08399365e-01 -1.58562514e+00 -3.17277585e+00  4.08399365e-01 -1.58562514e+00
  2.08168858e+00 -2.96823770e+00 -2.82339162e-01  2.08168858e+00 -2.96823770e+00
 -2.82339162e-01 -1.06198016e+00 -4.00082165e+00 -7.71384315e-01 -1.06198016e+00
 -4.00082165e+00 -7.71384315e-01  4.26627536e+00 -3.02302830e+00 -7.87008286e+00
  4.26627536e+00 -3.02302830e+00 -7.87008286e+00  4.81782152e+00  2.74793755e-01
 -8.12344119e+00  4.81782152e+00  2.74793755e-01 -8.12344119e+00  1.79614925e+00
 -9.86885652e-01 -8.93424292e+00  1.79614925e+00 -9.86885652e-01 -8.93424292e+00
 -5.24579634e+00  1.41054808e+00  6.92459506e+00 -5.24579634e+00  1.41054808e+00
  6.92459506e+00  2.75415038e+00  1.24121076e-01  7.61348764e+00  2.75415038e+00
  1.24121076e-01  7.61348764e+00 -3.10563869e+00  2.57379890e-01 -3.40908644e+00
 -3.10563869e+00  2.57379890e-01 -3.40908644e+00
Total Energy                               R     -5.974991058803904e+02
Alpha Orbital Energies                     R   N=         300
 -1.91588115e+01 -1.43409814e+01 -1.02558471e+01 -1.02209821e+01 -1.02209733e+01
 -1.02130056e+01 -1.01983838e+01 -1.01932166e+01 -1.01925231e+01 -1.01912146e+01
 -1.01905099e+01 -1.01901355e+01 -1.01901310e+01 -1.01856087e+01 -1.03196192e+00
 -9.37951919e-01 -8.55851927e-01 -8.00826883e-01 -7.65636445e-01 -7.49306842e-01
 -7.43503450e-01 -6.94150674e-01 -6.41696585e-01 -6.36283477e-01 -6.06965018e-01
 -5.86194872e-01 -5.58267638e-01 -5.24689587e-01 -5.08483250e-01 -4.82348207e-01
 -4.75371283e-01 -4.65170869e-01 -4.53696800e-01 -4.49733217e-01 -4.45234176e-01
 -4.32246965e-01 -4.18899282e-01 -4.07315265e-01 -4.01159562e-01 -3.85680869e-01
 -3.79414243e-01 -3.68190648e-01 -3.62764969e-01 -3.56445046e-01 -3.56325678e-01
 -3.41126796e-01 -3.36503003e-01 -3.15476055e-01 -2.80903618e-01 -2.50523315e-01
 -2.43883700e-01 -2.29123814e-01 -1.08663280e-02 -6.33689264e-03 -5.77095227e-03
  7.41534840e-03  1.84906726e-02  2.16502864e-02  2.27237443e-02  3.31528295e-02
  3.87310763e-02  4.55691271e-02  4.60342227e-02  5.51711200e-02  5.71524766e-02
  6.14303419e-02  6.55929984e-02  7.18468757e-02  7.83643850e-02  8.31574720e-02
  8.59201566e-02  9.10740756e-02  1.02239847e-01  1.03774657e-01  1.06322351e-01
  1.11455397e-01  1.17929617e-01  1.24364302e-01  1.25189790e-01  1.35855402e-01
  1.36194539e-01  1.43289900e-01  1.56903496e-01  1.63294877e-01  1.64453792e-01
  1.69121347e-01  1.70870001e-01  1.73116286e-01  1.81382687e-01  1.84320587e-01
  1.88715217e-01  1.89732044e-01  1.95581473e-01  1.99258790e-01  2.01811124e-01
  2.14585764e-01  2.14697724e-01  2.17061499e-01  2.19922461e-01  2.25223869e-01
  2.25997498e-01  2.32970666e-01  2.37584714e-01  2.38590161e-01  2.40778812e-01
  2.44079209e-01  2.47432856e-01  2.54754001e-01  2.56843909e-01  2.58285205e-01
  2.64933680e-01  2.68761142e-01  2.72187553e-01  2.76095149e-01  2.83871080e-01
  2.88633546e-01  2.92260387e-01  2.94361522e-01  2.97673133e-01  3.03548576e-01
  3.12160585e-01  3.17580205e-01  3.20194522e-01  3.25284979e-01  3.25497414e-01
  3.35772141e-01  3.40708972e-01  3.46086979e-01  3.55891756e-01  3.59339351e-01
  3.70950068e-01  3.78386743e-01  3.86805462e-01  3.96288004e-01  3.99966548e-01
  4.15741280e-01  4.33089169e-01  4.62126575e-01  4.76338638e-01  5.07637105e-01
  5.26924482e-01  5.95233876e-01  6.15568059e-01  6.26164216e-01  6.59289776e-01
  6.75808516e-01  6.77218208e-01  6.92602028e-01  6.99548074e-01  7.08026266e-01
  7.12601247e-01  7.24375919e-01  7.31238512e-01  7.34113967e-01  7.35726633e-01
  7.49032037e-01  7.55430176e-01  7.57020541e-01  7.62467113e-01  7.63504888e-01