Generated by Psi4
     FORCE                           RHF                       TESTBAS
Number of atoms                            I               23
Charge                                     I                0
Multiplicity                               I                1
Number of electrons                        I               82
Number of alpha electrons                  I               41
Number of beta electrons                   I               41
Number of basis functions                  I              233
Number of independent functions            I              233
Atomic numbers                             I   N=          23
           6           6           6           1           1           7
           6           6           6           6           6           6
           1           1           1           1           9           1
           1           1           1           1           1
Nuclear charges                            R   N=          23
  6.00000000e+00  6.00000000e+00  6.00000000e+00  1.00000000e+00  1.00000000e+00
  7.00000000e+00  6.00000000e+00  6.00000000e+00  6.00000000e+00  6.00000000e+00
  6.00000000e+00  6.00000000e+00  1.00000000e+00  1.00000000e+00  1.00000000e+00
  1.00000000e+00  9.00000000e+00  1.00000000e+00  1.00000000e+00  1.00000000e+00
  1.00000000e+00  1.00000000e+00  1.00000000e+00
Current cartesian coordinates              R   N=          69
  6.12095259e-01 -7.96736366e-01 -5.00757344e-01 -8.25785282e-01 -2.21384772e+00
  1.52223138e+00 -3.64253138e+00 -1.41104891e+00  1.82327172e+00  1.19019543e-01
 -2.00049644e+00  3.35396534e+00 -7.90150730e-01 -4.23644939e+00  1.05616927e+00
 -5.05730269e+00 -3.05367901e+00  3.55623768e+00  2.21667025e+00  1.22439340e+00
  5.34345372e-02  3.54791771e+00  2.57180643e+00 -1.76586201e+00  3.27070431e+00
  1.89005907e+00 -4.30011702e+00  1.68432353e+00 -1.20115672e-01 -4.95136531e+00
  3.87237079e-01 -1.43655627e+00 -3.06764276e+00 -3.92566546e+00  1.32904993e+00
  2.70259905e+00 -4.55260980e+00 -1.59742585e+00 -3.43036098e-02 -3.04826108e+00
  1.59993916e+00  4.56415732e+00 -5.92956042e+00  1.81888930e+00  2.85383962e+00
 -3.01998290e+00  2.64357371e+00  1.38679958e+00  2.51810976e+00  1.92668819e+00
  2.51873436e+00  1.46701302e+00 -6.68862362e-01 -6.91799553e+00 -8.26509697e-01
 -3.01414306e+00 -3.58449097e+00 -4.35618881e+00 -2.91570122e+00  5.34664351e+00
 -4.91726971e+00 -4.90299114e+00  3.03770440e+00  4.29532691e+00  2.92078585e+00
 -5.75046664e+00  4.76868696e+00  4.11454408e+00 -1.18402121e+00
Integer atomic weights                     I   N=          23
          12          12          12           1           1          14
          12          12          12          12          12          12
           1           1           1           1          18           1
           1           1           1           1           1
Real atomic weights                        R   N=          23
  1.20000000e+01  1.20000000e+01  1.20000000e+01  1.00782503e+00  1.00782503e+00
  1.40030740e+01  1.20000000e+01  1.20000000e+01  1.20000000e+01  1.20000000e+01
  1.20000000e+01  1.20000000e+01  1.00782503e+00  1.00782503e+00  1.00782503e+00
  1.00782503e+00  1.89984032e+01  1.00782503e+00  1.00782503e+00  1.00782503e+00
  1.00782503e+00  1.00782503e+00  1.00782503e+00
Number of primitive shells                 I              235
Number of contracted shells                I              112
Pure/Cartesian d shells                    I                1
Pure/Cartesian f shells                    I                1
Highest angular momentum                   I                2
Largest degree of contraction              I                6
Shell types                                I   N=         112
           0           0           1           0           1           2
           0           1           0           0           1           0
           1           2           0           1           0           0
           1           0           1           2           0           1
           0           0           0           0           0           0
           1           0           1           2           0           1
           0           0           1           0           1           2
           0           1           0           0           1           0
           1           2           0           1           0           0
           1           0           1           2           0           1
           0           0           1           0           1           2
           0           1           0           0           1           0
           1           2           0           1           0           0
           1           0           1           2           0           1
           0           0           0           0           0           0
           0           0           0           0           1           0
           1           2           0           1           0           0
           0           0           0           0           0           0
           0           0           0           0
Number of primitives per shell             I   N=         112
           6           3           3           1           1           1
           1           1           6           3           3           1
           1           1           1           1           6           3
           3           1           1           1           1           1
           3           1           3           1           6           3
           3           1           1           1           1           1
           6           3           3           1           1           1
           1           1           6           3           3           1
           1           1           1           1           6           3
           3           1           1           1           1           1
           6           3           3           1           1           1
           1           1           6           3           3           1
           1           1           1           1           6           3
           3           1           1           1           1           1
           3           1           3           1           3           1
           3           1           6           3           3           1
           1           1           1           1           3           1
           3           1           3           1           3           1
           3           1           3           1
Shell to atom map                          I   N=         112
           1           1           1           1           1           1
           1           1           2           2           2           2
           2           2           2           2           3           3
           3           3           3           3           3           3
           4           4           5           5           6           6
           6           6           6           6           6           6
           7           7           7           7           7           7
           7           7           8           8           8           8
           8           8           8           8           9           9
           9           9           9           9           9           9
          10          10          10          10          10          10
          10          10          11          11          11          11
          11          11          11          11          12          12
          12          12          12          12          12          12
          13          13          14          14          15          15
          16          16          17          17          17          17
          17          17          17          17          18          18
          19          19          20          20          21          21
          22          22          23          23
Primitive exponents                        R   N=         235
  3.04752490e+03  4.57369510e+02  1.03948690e+02  2.92101550e+01  9.28666300e+00
  3.16392700e+00  7.86827240e+00  1.88128850e+00  5.44249300e-01  7.86827240e+00
  1.88128850e+00  5.44249300e-01  1.68714400e-01  1.68714400e-01  8.00000000e-01
  4.38000000e-02  4.38000000e-02  3.04752490e+03  4.57369510e+02  1.03948690e+02
  2.92101550e+01  9.28666300e+00  3.16392700e+00  7.86827240e+00  1.88128850e+00
  5.44249300e-01  7.86827240e+00  1.88128850e+00  5.44249300e-01  1.68714400e-01
  1.68714400e-01  8.00000000e-01  4.38000000e-02  4.38000000e-02  3.04752490e+03
  4.57369510e+02  1.03948690e+02  2.92101550e+01  9.28666300e+00  3.16392700e+00
  7.86827240e+00  1.88128850e+00  5.44249300e-01  7.86827240e+00  1.88128850e+00
  5.44249300e-01  1.68714400e-01  1.68714400e-01  8.00000000e-01  4.38000000e-02
  4.38000000e-02  1.87311370e+01  2.82539370e+00  6.40121700e-01  1.61277800e-01
  1.87311370e+01  2.82539370e+00  6.40121700e-01  1.61277800e-01  4.17351100e+03
  6.27457900e+02  1.42902100e+02  4.02343300e+01  1.28202100e+01  4.39043700e+00
  1.16263580e+01  2.71628000e+00  7.72218000e-01  1.16263580e+01  2.71628000e+00
  7.72218000e-01  2.12031300e-01  2.12031300e-01  8.00000000e-01  6.39000000e-02
  6.39000000e-02  3.04752490e+03  4.57369510e+02  1.03948690e+02  2.92101550e+01
  9.28666300e+00  3.16392700e+00  7.86827240e+00  1.88128850e+00  5.44249300e-01
  7.86827240e+00  1.88128850e+00  5.44249300e-01  1.68714400e-01  1.68714400e-01
  8.00000000e-01  4.38000000e-02  4.38000000e-02  3.04752490e+03  4.57369510e+02
  1.03948690e+02  2.92101550e+01  9.28666300e+00  3.16392700e+00  7.86827240e+00
  1.88128850e+00  5.44249300e-01  7.86827240e+00  1.88128850e+00  5.44249300e-01
  1.68714400e-01  1.68714400e-01  8.00000000e-01  4.38000000e-02  4.38000000e-02
  3.04752490e+03  4.57369510e+02  1.03948690e+02  2.92101550e+01  9.28666300e+00
  3.16392700e+00  7.86827240e+00  1.88128850e+00  5.44249300e-01  7.86827240e+00
  1.88128850e+00  5.44249300e-01  1.68714400e-01  1.68714400e-01  8.00000000e-01
  4.38000000e-02  4.38000000e-02  3.04752490e+03  4.57369510e+02  1.03948690e+02
  2.92101550e+01  9.28666300e+00  3.16392700e+00  7.86827240e+00  1.88128850e+00
  5.44249300e-01  7.86827240e+00  1.88128850e+00  5.44249300e-01  1.68714400e-01
  1.68714400e-01  8.00000000e-01  4.38000000e-02  4.38000000e-02  3.04752490e+03
  4.57369510e+02  1.03948690e+02  2.92101550e+01  9.28666300e+00  3.16392700e+00
  7.86827240e+00  1.88128850e+00  5.44249300e-01  7.86827240e+00  1.88128850e+00
  5.44249300e-01  1.68714400e-01  1.68714400e-01  8.00000000e-01  4.38000000e-02
  4.38000000e-02  3.04752490e+03  4.57369510e+02  1.03948690e+02  2.92101550e+01
  9.28666300e+00  3.16392700e+00  7.86827240e+00  1.88128850e+00  5.44249300e-01
  7.86827240e+00  1.88128850e+00  5.44249300e-01  1.68714400e-01  1.68714400e-01
  8.00000000e-01  4.38000000e-02  4.38000000e-02  1.87311370e+01  2.82539370e+00
  6.40121700e-01  1.61277800e-01  1.87311370e+01  2.82539370e+00  6.40121700e-01
  1.61277800e-01  1.87311370e+01  2.82539370e+00  6.40121700e-01  1.61277800e-01
  1.87311370e+01  2.82539370e+00  6.40121700e-01  1.61277800e-01  7.00171309e+03
  1.05136609e+03  2.39285690e+02  6.73974453e+01  2.15199573e+01  7.40310130e+00
  2.08479528e+01  4.80830834e+00  1.34406986e+00  2.08479528e+01  4.80830834e+00
  1.34406986e+00  3.58151393e-01  3.58151393e-01  8.00000000e-01  1.07600000e-01
  1.07600000e-01  1.87311370e+01  2.82539370e+00  6.40121700e-01  1.61277800e-01
  1.87311370e+01  2.82539370e+00  6.40121700e-01  1.61277800e-01  1.87311370e+01
  2.82539370e+00  6.40121700e-01  1.61277800e-01  1.87311370e+01  2.82539370e+00
  6.40121700e-01  1.61277800e-01  1.87311370e+01  2.82539370e+00  6.40121700e-01
  1.61277800e-01  1.87311370e+01  2.82539370e+00  6.40121700e-01  1.61277800e-01
Contraction coefficients                   R   N=         235
  1.83470016e-03  1.40373012e-02  6.88426061e-02  2.32184421e-01  4.67941342e-01
  3.62312032e-01 -1.19332409e-01 -1.60854212e-01  1.14345648e+00  6.89990956e-02
  3.16423980e-01  7.44308252e-01  1.00000000e+00  1.00000000e+00  1.00000000e+00
  1.00000000e+00  1.00000000e+00  1.83470016e-03  1.40373012e-02  6.88426061e-02
  2.32184421e-01  4.67941342e-01  3.62312032e-01 -1.19332409e-01 -1.60854212e-01
  1.14345648e+00  6.89990956e-02  3.16423980e-01  7.44308252e-01  1.00000000e+00
  1.00000000e+00  1.00000000e+00  1.00000000e+00  1.00000000e+00  1.83470016e-03
  1.40373012e-02  6.88426061e-02  2.32184421e-01  4.67941342e-01  3.62312032e-01
 -1.19332409e-01 -1.60854212e-01  1.14345648e+00  6.89990956e-02  3.16423980e-01
  7.44308252e-01  1.00000000e+00  1.00000000e+00  1.00000000e+00  1.00000000e+00
  1.00000000e+00  3.34945995e-02  2.34726947e-01  8.13757318e-01  1.00000000e+00
  3.34945995e-02  2.34726947e-01  8.13757318e-01  1.00000000e+00  1.83479944e-03
  1.39949958e-02  6.85869792e-02  2.32240930e-01  4.69069858e-01  3.60454891e-01
 -1.14961023e-01 -1.69118034e-01  1.14585223e+00  6.75800232e-02  3.23907111e-01
  7.40895255e-01  1.00000000e+00  1.00000000e+00  1.00000000e+00  1.00000000e+00
  1.00000000e+00  1.83470016e-03  1.40373012e-02  6.88426061e-02  2.32184421e-01
  4.67941342e-01  3.62312032e-01 -1.19332409e-01 -1.60854212e-01  1.14345648e+00
  6.89990956e-02  3.16423980e-01  7.44308252e-01  1.00000000e+00  1.00000000e+00
  1.00000000e+00  1.00000000e+00  1.00000000e+00  1.83470016e-03  1.40373012e-02
  6.88426061e-02  2.32184421e-01  4.67941342e-01  3.62312032e-01 -1.19332409e-01
 -1.60854212e-01  1.14345648e+00  6.89990956e-02  3.16423980e-01  7.44308252e-01
  1.00000000e+00  1.00000000e+00  1.00000000e+00  1.00000000e+00  1.00000000e+00
  1.83470016e-03  1.40373012e-02  6.88426061e-02  2.32184421e-01  4.67941342e-01
  3.62312032e-01 -1.19332409e-01 -1.60854212e-01  1.14345648e+00  6.89990956e-02
  3.16423980e-01  7.44308252e-01  1.00000000e+00  1.00000000e+00  1.00000000e+00
  1.00000000e+00  1.00000000e+00  1.83470016e-03  1.40373012e-02  6.88426061e-02
  2.32184421e-01  4.67941342e-01  3.62312032e-01 -1.19332409e-01 -1.60854212e-01
  1.14345648e+00  6.89990956e-02  3.16423980e-01  7.44308252e-01  1.00000000e+00
  1.00000000e+00  1.00000000e+00  1.00000000e+00  1.00000000e+00  1.83470016e-03
  1.40373012e-02  6.88426061e-02  2.32184421e-01  4.67941342e-01  3.62312032e-01
 -1.19332409e-01 -1.60854212e-01  1.14345648e+00  6.89990956e-02  3.16423980e-01
  7.44308252e-01  1.00000000e+00  1.00000000e+00  1.00000000e+00  1.00000000e+00
  1.00000000e+00  1.83470016e-03  1.40373012e-02  6.88426061e-02  2.32184421e-01
  4.67941342e-01  3.62312032e-01 -1.19332409e-01 -1.60854212e-01  1.14345648e+00
  6.89990956e-02  3.16423980e-01  7.44308252e-01  1.00000000e+00  1.00000000e+00
  1.00000000e+00  1.00000000e+00  1.00000000e+00  3.34945995e-02  2.34726947e-01
  8.13757318e-01  1.00000000e+00  3.34945995e-02  2.34726947e-01  8.13757318e-01
  1.00000000e+00  3.34945995e-02  2.34726947e-01  8.13757318e-01  1.00000000e+00
  3.34945995e-02  2.34726947e-01  8.13757318e-01  1.00000000e+00  1.81961690e-03
  1.39160796e-02  6.84053245e-02  2.33185760e-01  4.71267439e-01  3.56618546e-01
 -1.08506975e-01 -1.46451658e-01  1.12868858e+00  7.16287242e-02  3.45912103e-01
  7.22469956e-01  1.00000000e+00  1.00000000e+00  1.00000000e+00  1.00000000e+00
  1.00000000e+00  3.34945995e-02  2.34726947e-01  8.13757318e-01  1.00000000e+00
  3.34945995e-02  2.34726947e-01  8.13757318e-01  1.00000000e+00  3.34945995e-02
  2.34726947e-01  8.13757318e-01  1.00000000e+00  3.34945995e-02  2.34726947e-01
  8.13757318e-01  1.00000000e+00  3.34945995e-02  2.34726947e-01  8.13757318e-01
  1.00000000e+00  3.34945995e-02  2.34726947e-01  8.13757318e-01  1.00000000e+00
Coordinates of each shell                  R   N=         336
  6.12095259e-01 -7.96736366e-01 -5.00757344e-01  6.12095259e-01 -7.96736366e-01
 -5.00757344e-01  6.12095259e-01 -7.96736366e-01 -5.00757344e-01  6.12095259e-01
 -7.96736366e-01 -5.00757344e-01  6.12095259e-01 -7.96736366e-01 -5.00757344e-01
  6.12095259e-01 -7.96736366e-01 -5.00757344e-01  6.12095259e-01 -7.96736366e-01
 -5.00757344e-01  6.12095259e-01 -7.96736366e-01 -5.00757344e-01 -8.25785282e-01
 -2.21384772e+00  1.52223138e+00 -8.25785282e-01 -2.21384772e+00  1.52223138e+00
 -8.25785282e-01 -2.21384772e+00  1.52223138e+00 -8.25785282e-01 -2.21384772e+00
  1.52223138e+00 -8.25785282e-01 -2.21384772e+00  1.52223138e+00 -8.25785282e-01
 -2.21384772e+00  1.52223138e+00 -8.25785282e-01 -2.21384772e+00  1.52223138e+00
 -8.25785282e-01 -2.21384772e+00  1.52223138e+00 -3.64253138e+00 -1.41104891e+00
  1.82327172e+00 -3.64253138e+00 -1.41104891e+00  1.82327172e+00 -3.64253138e+00
 -1.41104891e+00  1.82327172e+00 -3.64253138e+00 -1.41104891e+00  1.82327172e+00
 -3.64253138e+00 -1.41104891e+00  1.82327172e+00 -3.64253138e+00 -1.41104891e+00
  1.82327172e+00 -3.64253138e+00 -1.41104891e+00  1.82327172e+00 -3.64253138e+00
 -1.41104891e+00  1.82327172e+00  1.19019543e-01 -2.00049644e+00  3.35396534e+00
  1.19019543e-01 -2.00049644e+00  3.35396534e+00 -7.90150730e-01 -4.23644939e+00
  1.05616927e+00 -7.90150730e-01 -4.23644939e+00  1.05616927e+00 -5.05730269e+00
 -3.05367901e+00  3.55623768e+00 -5.05730269e+00 -3.05367901e+00  3.55623768e+00
 -5.05730269e+00 -3.05367901e+00  3.55623768e+00 -5.05730269e+00 -3.05367901e+00
  3.55623768e+00 -5.05730269e+00 -3.05367901e+00  3.55623768e+00 -5.05730269e+00
 -3.05367901e+00  3.55623768e+00 -5.05730269e+00 -3.05367901e+00  3.55623768e+00
 -5.05730269e+00 -3.05367901e+00  3.55623768e+00  2.21667025e+00  1.22439340e+00
  5.34345372e-02  2.21667025e+00  1.22439340e+00  5.34345372e-02  2.21667025e+00
  1.22439340e+00  5.34345372e-02  2.21667025e+00  1.22439340e+00  5.34345372e-02
  2.21667025e+00  1.22439340e+00  5.34345372e-02  2.21667025e+00  1.22439340e+00
  5.34345372e-02  2.21667025e+00  1.22439340e+00  5.34345372e-02  2.21667025e+00
  1.22439340e+00  5.34345372e-02  3.54791771e+00  2.57180643e+00 -1.76586201e+00
  3.54791771e+00  2.57180643e+00 -1.76586201e+00  3.54791771e+00  2.57180643e+00
 -1.76586201e+00  3.54791771e+00  2.57180643e+00 -1.76586201e+00  3.54791771e+00
  2.57180643e+00 -1.76586201e+00  3.54791771e+00  2.57180643e+00 -1.76586201e+00
  3.54791771e+00  2.57180643e+00 -1.76586201e+00  3.54791771e+00  2.57180643e+00
 -1.76586201e+00  3.27070431e+00  1.89005907e+00 -4.30011702e+00  3.27070431e+00
  1.89005907e+00 -4.30011702e+00  3.27070431e+00  1.89005907e+00 -4.30011702e+00
  3.27070431e+00  1.89005907e+00 -4.30011702e+00  3.27070431e+00  1.89005907e+00
 -4.30011702e+00  3.27070431e+00  1.89005907e+00 -4.30011702e+00  3.27070431e+00
  1.89005907e+00 -4.30011702e+00  3.27070431e+00  1.89005907e+00 -4.30011702e+00
  1.68432353e+00 -1.20115672e-01 -4.95136531e+00  1.68432353e+00 -1.20115672e-01
 -4.95136531e+00  1.68432353e+00 -1.20115672e-01 -4.95136531e+00  1.68432353e+00
 -1.20115672e-01 -4.95136531e+00  1.68432353e+00 -1.20115672e-01 -4.95136531e+00
  1.68432353e+00 -1.20115672e-01 -4.95136531e+00  1.68432353e+00 -1.20115672e-01
 -4.95136531e+00  1.68432353e+00 -1.20115672e-01 -4.95136531e+00  3.87237079e-01
 -1.43655627e+00 -3.06764276e+00  3.87237079e-01 -1.43655627e+00 -3.06764276e+00
  3.87237079e-01 -1.43655627e+00 -3.06764276e+00  3.87237079e-01 -1.43655627e+00
 -3.06764276e+00  3.87237079e-01 -1.43655627e+00 -3.06764276e+00  3.87237079e-01
 -1.43655627e+00 -3.06764276e+00  3.87237079e-01 -1.43655627e+00 -3.06764276e+00
  3.87237079e-01 -1.43655627e+00 -3.06764276e+00 -3.92566546e+00  1.32904993e+00
  2.70259905e+00 -3.92566546e+00  1.32904993e+00  2.70259905e+00 -3.92566546e+00
  1.32904993e+00  2.70259905e+00 -3.92566546e+00  1.32904993e+00  2.70259905e+00
 -3.92566546e+00  1.32904993e+00  2.70259905e+00 -3.92566546e+00  1.32904993e+00
  2.70259905e+00 -3.92566546e+00  1.32904993e+00  2.70259905e+00 -3.92566546e+00
  1.32904993e+00  2.70259905e+00 -4.55260980e+00 -1.59742585e+00 -3.43036098e-02
 -4.55260980e+00 -1.59742585e+00 -3.43036098e-02 -3.04826108e+00  1.59993916e+00
  4.56415732e+00 -3.04826108e+00  1.59993916e+00  4.56415732e+00 -5.92956042e+00
  1.81888930e+00  2.85383962e+00 -5.92956042e+00  1.81888930e+00  2.85383962e+00
 -3.01998290e+00  2.64357371e+00  1.38679958e+00 -3.01998290e+00  2.64357371e+00
  1.38679958e+00  2.51810976e+00  1.92668819e+00  2.51873436e+00  2.51810976e+00
  1.92668819e+00  2.51873436e+00  2.51810976e+00  1.92668819e+00  2.51873436e+00
  2.51810976e+00  1.92668819e+00  2.51873436e+00  2.51810976e+00  1.92668819e+00
  2.51873436e+00  2.51810976e+00  1.92668819e+00  2.51873436e+00  2.51810976e+00
  1.92668819e+00  2.51873436e+00  2.51810976e+00  1.92668819e+00  2.51873436e+00
  1.46701302e+00 -6.68862362e-01 -6.91799553e+00  1.46701302e+00 -6.68862362e-01
 -6.91799553e+00 -8.26509697e-01 -3.01414306e+00 -3.58449097e+00 -8.26509697e-01
 -3.01414306e+00 -3.58449097e+00 -4.35618881e+00 -2.91570122e+00  5.34664351e+00
 -4.35618881e+00 -2.91570122e+00  5.34664351e+00 -4.91726971e+00 -4.90299114e+00
  3.03770440e+00 -4.91726971e+00 -4.90299114e+00  3.03770440e+00  4.29532691e+00
  2.92078585e+00 -5.75046664e+00  4.29532691e+00  2.92078585e+00 -5.75046664e+00
  4.76868696e+00  4.11454408e+00 -1.18402121e+00  4.76868696e+00  4.11454408e+00
 -1.18402121e+00
Total Energy                               R     -5.047969045251402e+02
Alpha Orbital Energies                     R   N=         233
 -2.47234187e+01 -1.43248587e+01 -1.02807140e+01 -1.02244334e+01 -1.02140905e+01
 -1.02088657e+01 -1.02076022e+01 -1.02073697e+01 -1.02039822e+01 -1.01976304e+01
 -1.01754378e+01 -1.22674502e+00 -8.95084164e-01 -8.72127411e-01 -7.92801982e-01
 -7.57745288e-01 -7.38290239e-01 -6.92608226e-01 -6.30007621e-01 -6.14174305e-01
 -5.83820490e-01 -5.45943001e-01 -5.07258877e-01 -4.97843001e-01 -4.91357990e-01
 -4.75771344e-01 -4.55475422e-01 -4.50600973e-01 -4.40198559e-01 -4.15947127e-01
 -4.13393977e-01 -4.00655364e-01 -3.74452630e-01 -3.71484488e-01 -3.71247773e-01
 -3.56899493e-01 -3.47490579e-01 -3.40176810e-01 -2.67529362e-01 -2.57659249e-01
 -2.38263116e-01 -2.74405922e-02 -1.38414730e-02 -1.83102395e-03  6.01635862e-03
  1.80548186e-02  2.99140801e-02  3.05012129e-02  3.67131444e-02  4.89120642e-02
  5.40949445e-02  6.03714405e-02  6.34693786e-02  6.57473372e-02  7.79931164e-02
  9.34716993e-02  9.54285039e-02  9.59551185e-02  1.08919034e-01  1.10123965e-01
  1.13723980e-01  1.24777279e-01  1.27707275e-01  1.30479908e-01  1.36378940e-01
  1.45433488e-01  1.47559435e-01  1.55374747e-01  1.58148843e-01  1.62741109e-01
  1.69282745e-01  1.79967533e-01  1.87291147e-01  1.89984118e-01  1.93106485e-01
  1.99431903e-01  2.01538231e-01  2.08969430e-01  2.12426294e-01  2.19006445e-01
  2.23202365e-01  2.29355271e-01  2.32569122e-01  2.37887454e-01  2.40480017e-01
  2.50050961e-01  2.51932725e-01  2.63329475e-01  2.71461510e-01  2.74432936e-01
  2.77058786e-01  2.90603922e-01  2.93717259e-01  2.96559201e-01  3.03729655e-01
  3.16220430e-01  3.25212197e-01  3.46506970e-01  3.52438389e-01  3.62869432e-01
  3.65997090e-01  3.67722933e-01  3.77629062e-01  3.83852767e-01  3.96299471e-01
  3.98799720e-01  4.41801509e-01  4.61029453e-01  4.86188018e-01  5.73984912e-01
  5.99394345e-01  6.39163992e-01  6.62899013e-01  6.68342846e-01  6.78220285e-01
  6.79778448e-01  6.94876112e-01  7.02044552e-01  7.16604891e-01  7.25860613e-01
  7.36879119e-01  7.45114458e-01  7.51380290e-01  7.57354614e-01  7.76145045e-01
  7.84264661e-01  7.99605800e-01  8.08227961e-01  8.26711505e-01  8.60157676e-01
  8.90556482e-01  8.99398093e-01  9.26995766e-01  9.34508395e-01  9.40216052e-01
  9.49578447e-01  9.77797000e-01  9.91004566e-01  1.00732648e+00  1.01234413e+00
  1.02755250e+00  1.03984068e+00  1.05507247e+00  1.06180571e+00  1.08169729e+00
  1.08798579e+00  1.12231084e+00  1.12980247e+00  1.14629363e+00  1.16341566e+00
  1.18219108e+00  1.18451170e+00  1.19632599e+00  1.22145752e+00  1.24075072e+00
  1.27319559e+00  1.30729518e+00  1.33275861e+00  1.35251465e+00  1.39631574e+00
  1.41308874e+00  1.42825764e+00  1.44801336e+00  1.46584075e+00  1.47976116e+00
  1.49785362e+00  1.56531489e+00  1.56794289e+00  1.62838404e+00  1.65969863e+00
  1.67312602e+00  1.71831319e+00  1.77513398e+00  1.78808228e+00  1.80244903e+00
  1.81419116e+00  1.81985748e+00  1.82648658e+00  1.84749856e+00  1.87334577e+00
  1.89190177e+00  1.92307577e+00  1.94526635e+00  1.96538372e+00  1.98060659e+00
  1.98625761e+00  2.01827599e+00  2.05562033e+00  2.07128722e+00  2.08982009e+00
  2.10187498e+00  2.13832879e+00  2.16906065e+00  2.17326707e+00  2.20442352e+00
  2.21894053e+00  2.23403126e+00  2.25797011e+00  2.27991419e+00  2.28770765e+00
  2.33052880e+00  2.34304981e+00  2.34877116e+00  2.39007832e+00  2.41771681e+00
  2.50045973e+00  2.53446421e+00  2.58023935e+00  2.59964720e+00  2.60814486e+00
  2.64027490e+00  2.66036608e+00  2.71721431e+00  2.73780565e+00  2.74765864e+00
  2.78229332e+00  2.82618215e+00  2.87754765e+00  2.94983073e+00  3.15390419e+00
  3.21776050e+00  3.44534473e+00  3.98767198e+00  4.22881854e+00  4.24473866e+00
  4.25898783e+00  4.31855724e+00  4.37600576e+00  4.43322450e+00  4.47716773e+00
  4.62269679e+00  4.75980874e+00  6.30718557e+00
Alpha MO coefficients                      R   N=       54289
 -8.03945295e-06  6.11054767e-05 -2.84367530e-05 -8.10418805e-06  1.07433668e-04
  1.77864336e-03  1.28560783e-03  1.08073315e-03 -2.83295040e-03 -2.83422504e-05
 -3.85352983e-05 -7.40654872e-05 -3.07669253e-05 -1.30246919e-05 -2.93204912e-05
 -5.43239417e-03  4.70211927e-04 -6.78517277e-04  5.23808335e-04 -6.14811910e-06
 -1.11595448e-04  3.99527399e-05  6.02692070e-05 -2.43322457e-05  1.68090439e-03
  4.22082483e-04  4.88154451e-04 -5.90451863e-04  5.47705366e-05  5.68904310e-05
  9.40863565e-06  3.77899558e-05 -2.88509679e-05 -2.50192687e-05  3.89860358e-03
 -1.49128881e-03  3.41698870e-04 -3.19308723e-04  3.48695095e-06  3.55685178e-05
 -9.15574837e-06 -4.46031680e-06 -1.88524109e-06 -3.61434909e-04 -8.20299002e-05
  4.94519446e-05 -2.48797225e-05 -1.57724065e-05 -9.35840366e-07 -7.76811804e-06
 -7.48792303e-06  3.11510161e-06  2.37311910e-07 -4.35862829e-03 -3.90224817e-04
  3.56519483e-04 -5.68284135e-04  5.54625523e-06  1.61579028e-05 -2.67637027e-05
 -1.05222707e-04 -9.88030907e-06 -3.96859074e-05 -1.01802804e-05 -1.19515728e-07
  7.31959627e-06  2.24083369e-04  1.10883970e-04  2.21971187e-05 -7.15193049e-05
 -1.46580231e-05 -1.91043495e-05 -2.08089612e-05  6.21387507e-06 -1.25674056e-05
 -2.28212731e-06  7.65533878e-04  1.89698570e-05 -4.55936610e-05  2.65404230e-05
 -4.09848435e-05 -6.70137221e-05  7.65075948e-05  1.82731080e-04  5.79806515e-04
 -5.48274789e-04  1.86570011e-04  7.78010044e-04  4.06336541e-03 -9.82499182e-05
 -3.66990924e-05  8.34750286e-04  5.04651337e-05  1.29808357e-04  3.04478609e-04
  1.61561013e-03 -1.66072918e-03 -3.84245672e-04  2.31589081e-03 -2.52071595e-05
 -6.15778556e-06  5.37893756e-06  1.69402982e-05  4.57145529e-05  2.65035285e-03
 -1.28376606e-03 -1.65346915e-03 -7.13913168e-04 -3.51739534e-05 -3.00055634e-05
 -1.50739322e-04  1.20563257e-05  9.53644516e-06 -5.48316863e-06 -4.89746113e-04
 -2.67681052e-04 -7.92719339e-04  1.08255800e-03  1.24101336e-05  5.64842556e-05
  6.99664424e-06  7.61653333e-06 -1.86841288e-05 -2.12075775e-03  4.79946980e-04
  4.62007825e-04 -8.23191879e-04  8.62437562e-06  1.03727970e-05  2.38536605e-05
 -8.37644131e-07  2.50468303e-06  6.53565001e-06  5.34862076e-04  5.83032826e-04
  1.17537972e-03  1.49803696e-03 -1.75275518e-05 -8.96245269e-05 -7.41345465e-06
 -1.35133750e-05 -1.39475827e-05  1.50835717e-03  1.94578090e-04  3.82117774e-04
  1.00473143e-03 -1.99903712e-05 -1.32140515e-05 -6.85583834e-06  1.77259684e-05
 -2.08209435e-07  3.32039033e-06 -2.70701890e-03  1.36340462e-03  1.41058205e-03
 -1.05100061e-03  1.72139397e-05  8.38800442e-05 -1.01932189e-05 -1.89113387e-05
 -2.76108901e-05 -2.55212350e-03 -6.80939521e-04 -9.13328077e-04 -7.60245912e-04
  1.78635261e-05  1.56057814e-05  1.05880500e-05 -5.97775461e-06 -1.11020440e-05
 -1.27083204e-05  7.54862950e-03  9.57417167e-04  1.16948454e-03 -1.08386432e-03
 -1.02119059e-05 -3.78705563e-05 -2.52516333e-05 -9.87768402e-06  1.11982686e-05
  1.62391586e-04  1.37730975e-04  3.00221797e-05 -7.86679904e-05 -1.17951533e-05
 -2.16573118e-05 -1.78939672e-05  5.64277486e-06 -3.11524870e-06 -2.06922700e-06
  5.68927175e-04 -2.42406905e-04 -4.49629179e-04  6.20936833e-05  1.49241965e-05
 -1.02932867e-05 -3.74879957e-05  4.29911491e-05  6.97652214e-06  5.38063969e-05
 -6.57341954e-06 -1.76324946e-04  9.92667273e-01  1.80962586e-02 -9.73938624e-05
 -2.56337023e-04 -8.97370469e-04  2.01643175e-02  1.66067423e-04  5.17044381e-04
  1.85805682e-03 -9.29466232e-03 -9.33583703e-03 -9.97279459e-03 -1.10439517e-05
 -1.11779062e-04 -2.40221746e-04 -6.83601507e-03  3.54163737e-04  2.46107406e-04
  3.21580278e-04  3.32501734e-05  3.22764595e-04 -1.14676773e-06 -3.62341576e-04
 -5.40421871e-06 -4.99805460e-05 -8.74195620e-06 -1.16088289e-04 -1.14207471e-05
 -2.27333265e-04  8.38173052e-05  9.44761415e-04  8.71535581e-07  1.16378590e-05
 -9.92713585e-06 -7.18157873e-06  2.11916700e-05  8.08067503e-05  4.12430579e-04
  3.22771981e-04 -7.91047853e-04 -4.38394169e-06 -1.88313404e-06 -6.71799573e-06
 -1.14055042e-05  1.72632089e-05  1.59018046e-05  4.56659087e-03 -4.69996888e-04
 -1.22574382e-03  2.26300416e-03 -6.60751986e-06 -1.01895414e-04 -4.40838988e-05
 -1.94918433e-05  2.09719066e-05  8.70075754e-04  1.18022071e-04  3.84835358e-04
 -2.61770932e-04  5.07749892e-05  1.25465811e-05  3.62250847e-05  2.29725617e-05
 -4.08338920e-05 -2.35738642e-05 -5.97434907e-03 -1.87076617e-03 -1.01005195e-03
  2.52177837e-03  2.53257215e-05  2.59574731e-05  1.42059671e-04  1.46798992e-04
 -1.56141616e-04 -6.87485673e-04 -1.87210004e-04  1.70305614e-04 -2.81582312e-04
  1.90190823e-06 -3.24690701e-05 -2.29968032e-05 -6.26491957e-05  8.29136699e-05
  9.64425118e-05 -7.65356952e-03  1.01128960e-03  1.38672106e-04 -2.35352463e-03
 -3.59904960e-05  1.50537376e-04 -1.36457394e-05  2.07161886e-04 -9.92658902e-01