Generated by Psi4
     FORCE                           RHF                       TESTBAS
Number of atoms                            I               26
Charge                                     I                0
Multiplicity                               I                1
Number of electrons                        I               90
Number of alpha electrons                  I               45
Number of beta electrons                   I               45
Number of basis functions                  I              256
Number of independent functions            I              256
Atomic numbers                             I   N=          26
           6           6           6           1           1           7
           6           6           6           6           6           6
           1           1           6           1           1           1
           1           1           1           1           9           1
           1           1
Nuclear charges                            R   N=          26
  6.00000000e+00  6.00000000e+00  6.00000000e+00  1.00000000e+00  1.00000000e+00
  7.00000000e+00  6.00000000e+00  6.00000000e+00  6.00000000e+00  6.00000000e+00
  6.00000000e+00  6.00000000e+00  1.00000000e+00  1.00000000e+00  6.00000000e+00
  1.00000000e+00  1.00000000e+00  1.00000000e+00  1.00000000e+00  1.00000000e+00
  1.00000000e+00  1.00000000e+00  9.00000000e+00  1.00000000e+00  1.00000000e+00
  1.00000000e+00
Current cartesian coordinates              R   N=          78
  1.41563723e+00  1.36113231e-01 -2.78846847e-01 -1.45046573e-02 -1.19617723e+00
  1.80234203e+00 -2.87940388e+00 -5.00763390e-01  1.95125618e+00  8.96783770e-01
 -7.65761474e-01  3.61311943e+00  1.28480952e-01 -3.24714561e+00  1.52466441e+00
 -4.36226141e+00 -2.21108680e+00  3.56361510e+00  3.05562069e+00  2.16916810e+00
  1.84832085e-01  4.35376623e+00  3.38549542e+00 -1.76689582e+00  4.04271157e+00
  2.57930233e+00 -4.26244753e+00  2.43257706e+00  5.54820554e-01 -4.79410608e+00
  1.17193308e+00 -6.00243400e-01 -2.80397259e+00 -3.62379876e+00 -2.43057175e+00
  6.21702795e+00 -4.40625919e+00 -3.95745610e+00  2.75950264e+00  5.60973518e+00
  4.95194428e+00 -1.33689129e+00 -3.28823990e+00  2.25894887e+00  2.73234096e+00
 -3.66826496e+00 -7.39193824e-01  4.92820254e-02 -2.46196563e+00  2.66756184e+00
  4.58973743e+00 -5.31320968e+00  2.67605472e+00  2.82023316e+00 -2.41056593e+00
  3.54285903e+00  1.36704330e+00  3.31692228e+00  2.79720640e+00  2.12463293e+00
  5.04784846e+00  3.51025840e+00 -5.79172131e+00  2.14892327e+00 -1.34917145e-01
 -6.70530404e+00 -3.83515593e-01 -2.58863359e+00 -3.35545478e+00 -3.87644785e+00
 -6.13351304e-01  7.17349125e+00 -1.66057980e+00 -3.06100437e+00  6.54020476e+00
 -4.88547711e+00 -3.78828935e+00  7.13795607e+00
Integer atomic weights                     I   N=          26
          12          12          12           1           1          14
          12          12          12          12          12          12
           1           1          12           1           1           1
           1           1           1           1          18           1
           1           1
Real atomic weights                        R   N=          26
  1.20000000e+01  1.20000000e+01  1.20000000e+01  1.00782503e+00  1.00782503e+00
  1.40030740e+01  1.20000000e+01  1.20000000e+01  1.20000000e+01  1.20000000e+01
  1.20000000e+01  1.20000000e+01  1.00782503e+00  1.00782503e+00  1.20000000e+01
  1.00782503e+00  1.00782503e+00  1.00782503e+00  1.00782503e+00  1.00782503e+00
  1.00782503e+00  1.00782503e+00  1.89984032e+01  1.00782503e+00  1.00782503e+00
  1.00782503e+00
Number of primitive shells                 I              260
Number of contracted shells                I              124
Pure/Cartesian d shells                    I                1
Pure/Cartesian f shells                    I                1
Highest angular momentum                   I                2
Largest degree of contraction              I                6
Shell types                                I   N=         124
           0           0           1           0           1           2
           0           1           0           0           1           0
           1           2           0           1           0           0
           1           0           1           2           0           1
           0           0           0           0           0           0
           1           0           1           2           0           1
           0           0           1           0           1           2
           0           1           0           0           1           0
           1           2           0           1           0           0
           1           0           1           2           0           1
           0           0           1           0           1           2
           0           1           0           0           1           0
           1           2           0           1           0           0
           1           0           1           2           0           1
           0           0           0           0           0           0
           1           0           1           2           0           1
           0           0           0           0           0           0
           0           0           0           0           0           0
           0           0           0           0           1           0
           1           2           0           1           0           0
           0           0           0           0
Number of primitives per shell             I   N=         124
           6           3           3           1           1           1
           1           1           6           3           3           1
           1           1           1           1           6           3
           3           1           1           1           1           1
           3           1           3           1           6           3
           3           1           1           1           1           1
           6           3           3           1           1           1
           1           1           6           3           3           1
           1           1           1           1           6           3
           3           1           1           1           1           1
           6           3           3           1           1           1
           1           1           6           3           3           1
           1           1           1           1           6           3
           3           1           1           1           1           1
           3           1           3           1           6           3
           3           1           1           1           1           1
           3           1           3           1           3           1
           3           1           3           1           3           1
           3           1           6           3           3           1
           1           1           1           1           3           1
           3           1           3           1
Shell to atom map                          I   N=         124
           1           1           1           1           1           1
           1           1           2           2           2           2
           2           2           2           2           3           3
           3           3           3           3           3           3
           4           4           5           5           6           6
           6           6           6           6           6           6
           7           7           7           7           7           7
           7           7           8           8           8           8
           8           8           8           8           9           9
           9           9           9           9           9           9
          10          10          10          10          10          10
          10          10          11          11          11          11
          11          11          11          11          12          12
          12          12          12          12          12          12
          13          13          14          14          15          15
          15          15          15          15          15          15
          16          16          17          17          18          18
          19          19          20          20          21          21
          22          22          23          23          23          23
          23          23          23          23          24          24
          25          25          26          26
Primitive exponents                        R   N=         260
  3.04752490e+03  4.57369510e+02  1.03948690e+02  2.92101550e+01  9.28666300e+00
  3.16392700e+00  7.86827240e+00  1.88128850e+00  5.44249300e-01  7.86827240e+00
  1.88128850e+00  5.44249300e-01  1.68714400e-01  1.68714400e-01  8.00000000e-01
  4.38000000e-02  4.38000000e-02  3.04752490e+03  4.57369510e+02  1.03948690e+02
  2.92101550e+01  9.28666300e+00  3.16392700e+00  7.86827240e+00  1.88128850e+00
  5.44249300e-01  7.86827240e+00  1.88128850e+00  5.44249300e-01  1.68714400e-01
  1.68714400e-01  8.00000000e-01  4.38000000e-02  4.38000000e-02  3.04752490e+03
  4.57369510e+02  1.03948690e+02  2.92101550e+01  9.28666300e+00  3.16392700e+00
  7.86827240e+00  1.88128850e+00  5.44249300e-01  7.86827240e+00  1.88128850e+00
  5.44249300e-01  1.68714400e-01  1.68714400e-01  8.00000000e-01  4.38000000e-02
  4.38000000e-02  1.87311370e+01  2.82539370e+00  6.40121700e-01  1.61277800e-01
  1.87311370e+01  2.82539370e+00  6.40121700e-01  1.61277800e-01  4.17351100e+03
  6.27457900e+02  1.42902100e+02  4.02343300e+01  1.28202100e+01  4.39043700e+00
  1.16263580e+01  2.71628000e+00  7.72218000e-01  1.16263580e+01  2.71628000e+00
  7.72218000e-01  2.12031300e-01  2.12031300e-01  8.00000000e-01  6.39000000e-02
  6.39000000e-02  3.04752490e+03  4.57369510e+02  1.03948690e+02  2.92101550e+01
  9.28666300e+00  3.16392700e+00  7.86827240e+00  1.88128850e+00  5.44249300e-01
  7.86827240e+00  1.88128850e+00  5.44249300e-01  1.68714400e-01  1.68714400e-01
  8.00000000e-01  4.38000000e-02  4.38000000e-02  3.04752490e+03  4.57369510e+02
  1.03948690e+02  2.92101550e+01  9.28666300e+00  3.16392700e+00  7.86827240e+00
  1.88128850e+00  5.44249300e-01  7.86827240e+00  1.88128850e+00  5.44249300e-01
  1.68714400e-01  1.68714400e-01  8.00000000e-01  4.38000000e-02  4.38000000e-02
  3.04752490e+03  4.57369510e+02  1.03948690e+02  2.92101550e+01  9.28666300e+00
  3.16392700e+00  7.86827240e+00  1.88128850e+00  5.44249300e-01  7.86827240e+00
  1.88128850e+00  5.44249300e-01  1.68714400e-01  1.68714400e-01  8.00000000e-01
  4.38000000e-02  4.38000000e-02  3.04752490e+03  4.57369510e+02  1.03948690e+02
  2.92101550e+01  9.28666300e+00  3.16392700e+00  7.86827240e+00  1.88128850e+00
  5.44249300e-01  7.86827240e+00  1.88128850e+00  5.44249300e-01  1.68714400e-01
  1.68714400e-01  8.00000000e-01  4.38000000e-02  4.38000000e-02  3.04752490e+03
  4.57369510e+02  1.03948690e+02  2.92101550e+01  9.28666300e+00  3.16392700e+00
  7.86827240e+00  1.88128850e+00  5.44249300e-01  7.86827240e+00  1.88128850e+00
  5.44249300e-01  1.68714400e-01  1.68714400e-01  8.00000000e-01  4.38000000e-02
  4.38000000e-02  3.04752490e+03  4.57369510e+02  1.03948690e+02  2.92101550e+01
  9.28666300e+00  3.16392700e+00  7.86827240e+00  1.88128850e+00  5.44249300e-01
  7.86827240e+00  1.88128850e+00  5.44249300e-01  1.68714400e-01  1.68714400e-01
  8.00000000e-01  4.38000000e-02  4.38000000e-02  1.87311370e+01  2.82539370e+00
  6.40121700e-01  1.61277800e-01  1.87311370e+01  2.82539370e+00  6.40121700e-01
  1.61277800e-01  3.04752490e+03  4.57369510e+02  1.03948690e+02  2.92101550e+01
  9.28666300e+00  3.16392700e+00  7.86827240e+00  1.88128850e+00  5.44249300e-01
  7.86827240e+00  1.88128850e+00  5.44249300e-01  1.68714400e-01  1.68714400e-01
  8.00000000e-01  4.38000000e-02  4.38000000e-02  1.87311370e+01  2.82539370e+00
  6.40121700e-01  1.61277800e-01  1.87311370e+01  2.82539370e+00  6.40121700e-01
  1.61277800e-01  1.87311370e+01  2.82539370e+00  6.40121700e-01  1.61277800e-01
  1.87311370e+01  2.82539370e+00  6.40121700e-01  1.61277800e-01  1.87311370e+01
  2.82539370e+00  6.40121700e-01  1.61277800e-01  1.87311370e+01  2.82539370e+00
  6.40121700e-01  1.61277800e-01  1.87311370e+01  2.82539370e+00  6.40121700e-01
  1.61277800e-01  7.00171309e+03  1.05136609e+03  2.39285690e+02  6.73974453e+01
  2.15199573e+01  7.40310130e+00  2.08479528e+01  4.80830834e+00  1.34406986e+00
  2.08479528e+01  4.80830834e+00  1.34406986e+00  3.58151393e-01  3.58151393e-01
  8.00000000e-01  1.07600000e-01  1.07600000e-01  1.87311370e+01  2.82539370e+00
  6.40121700e-01  1.61277800e-01  1.87311370e+01  2.82539370e+00  6.40121700e-01
  1.61277800e-01  1.87311370e+01  2.82539370e+00  6.40121700e-01  1.61277800e-01
Contraction coefficients                   R   N=         260
  1.83470016e-03  1.40373012e-02  6.88426061e-02  2.32184421e-01  4.67941342e-01
  3.62312032e-01 -1.19332409e-01 -1.60854212e-01  1.14345648e+00  6.89990956e-02
  3.16423980e-01  7.44308252e-01  1.00000000e+00  1.00000000e+00  1.00000000e+00
  1.00000000e+00  1.00000000e+00  1.83470016e-03  1.40373012e-02  6.88426061e-02
  2.32184421e-01  4.67941342e-01  3.62312032e-01 -1.19332409e-01 -1.60854212e-01
  1.14345648e+00  6.89990956e-02  3.16423980e-01  7.44308252e-01  1.00000000e+00
  1.00000000e+00  1.00000000e+00  1.00000000e+00  1.00000000e+00  1.83470016e-03
  1.40373012e-02  6.88426061e-02  2.32184421e-01  4.67941342e-01  3.62312032e-01
 -1.19332409e-01 -1.60854212e-01  1.14345648e+00  6.89990956e-02  3.16423980e-01
  7.44308252e-01  1.00000000e+00  1.00000000e+00  1.00000000e+00  1.00000000e+00
  1.00000000e+00  3.34945995e-02  2.34726947e-01  8.13757318e-01  1.00000000e+00
  3.34945995e-02  2.34726947e-01  8.13757318e-01  1.00000000e+00  1.83479944e-03
  1.39949958e-02  6.85869792e-02  2.32240930e-01  4.69069858e-01  3.60454891e-01
 -1.14961023e-01 -1.69118034e-01  1.14585223e+00  6.75800232e-02  3.23907111e-01
  7.40895255e-01  1.00000000e+00  1.00000000e+00  1.00000000e+00  1.00000000e+00
  1.00000000e+00  1.83470016e-03  1.40373012e-02  6.88426061e-02  2.32184421e-01
  4.67941342e-01  3.62312032e-01 -1.19332409e-01 -1.60854212e-01  1.14345648e+00
  6.89990956e-02  3.16423980e-01  7.44308252e-01  1.00000000e+00  1.00000000e+00
  1.00000000e+00  1.00000000e+00  1.00000000e+00  1.83470016e-03  1.40373012e-02
  6.88426061e-02  2.32184421e-01  4.67941342e-01  3.62312032e-01 -1.19332409e-01
 -1.60854212e-01  1.14345648e+00  6.89990956e-02  3.16423980e-01  7.44308252e-01
  1.00000000e+00  1.00000000e+00  1.00000000e+00  1.00000000e+00  1.00000000e+00
  1.83470016e-03  1.40373012e-02  6.88426061e-02  2.32184421e-01  4.67941342e-01
  3.62312032e-01 -1.19332409e-01 -1.60854212e-01  1.14345648e+00  6.89990956e-02
  3.16423980e-01  7.44308252e-01  1.00000000e+00  1.00000000e+00  1.00000000e+00
  1.00000000e+00  1.00000000e+00  1.83470016e-03  1.40373012e-02  6.88426061e-02
  2.32184421e-01  4.67941342e-01  3.62312032e-01 -1.19332409e-01 -1.60854212e-01
  1.14345648e+00  6.89990956e-02  3.16423980e-01  7.44308252e-01  1.00000000e+00
  1.00000000e+00  1.00000000e+00  1.00000000e+00  1.00000000e+00  1.83470016e-03
  1.40373012e-02  6.88426061e-02  2.32184421e-01  4.67941342e-01  3.62312032e-01
 -1.19332409e-01 -1.60854212e-01  1.14345648e+00  6.89990956e-02  3.16423980e-01
  7.44308252e-01  1.00000000e+00  1.00000000e+00  1.00000000e+00  1.00000000e+00
  1.00000000e+00  1.83470016e-03  1.40373012e-02  6.88426061e-02  2.32184421e-01
  4.67941342e-01  3.62312032e-01 -1.19332409e-01 -1.60854212e-01  1.14345648e+00
  6.89990956e-02  3.16423980e-01  7.44308252e-01  1.00000000e+00  1.00000000e+00
  1.00000000e+00  1.00000000e+00  1.00000000e+00  3.34945995e-02  2.34726947e-01
  8.13757318e-01  1.00000000e+00  3.34945995e-02  2.34726947e-01  8.13757318e-01
  1.00000000e+00  1.83470016e-03  1.40373012e-02  6.88426061e-02  2.32184421e-01
  4.67941342e-01  3.62312032e-01 -1.19332409e-01 -1.60854212e-01  1.14345648e+00
  6.89990956e-02  3.16423980e-01  7.44308252e-01  1.00000000e+00  1.00000000e+00
  1.00000000e+00  1.00000000e+00  1.00000000e+00  3.34945995e-02  2.34726947e-01
  8.13757318e-01  1.00000000e+00  3.34945995e-02  2.34726947e-01  8.13757318e-01
  1.00000000e+00  3.34945995e-02  2.34726947e-01  8.13757318e-01  1.00000000e+00
  3.34945995e-02  2.34726947e-01  8.13757318e-01  1.00000000e+00  3.34945995e-02
  2.34726947e-01  8.13757318e-01  1.00000000e+00  3.34945995e-02  2.34726947e-01
  8.13757318e-01  1.00000000e+00  3.34945995e-02  2.34726947e-01  8.13757318e-01
  1.00000000e+00  1.81961690e-03  1.39160796e-02  6.84053245e-02  2.33185760e-01
  4.71267439e-01  3.56618546e-01 -1.08506975e-01 -1.46451658e-01  1.12868858e+00
  7.16287242e-02  3.45912103e-01  7.22469956e-01  1.00000000e+00  1.00000000e+00
  1.00000000e+00  1.00000000e+00  1.00000000e+00  3.34945995e-02  2.34726947e-01
  8.13757318e-01  1.00000000e+00  3.34945995e-02  2.34726947e-01  8.13757318e-01
  1.00000000e+00  3.34945995e-02  2.34726947e-01  8.13757318e-01  1.00000000e+00
Coordinates of each shell                  R   N=         372
  1.41563723e+00  1.36113231e-01 -2.78846847e-01  1.41563723e+00  1.36113231e-01
 -2.78846847e-01  1.41563723e+00  1.36113231e-01 -2.78846847e-01  1.41563723e+00
  1.36113231e-01 -2.78846847e-01  1.41563723e+00  1.36113231e-01 -2.78846847e-01
  1.41563723e+00  1.36113231e-01 -2.78846847e-01  1.41563723e+00  1.36113231e-01
 -2.78846847e-01  1.41563723e+00  1.36113231e-01 -2.78846847e-01 -1.45046573e-02
 -1.19617723e+00  1.80234203e+00 -1.45046573e-02 -1.19617723e+00  1.80234203e+00
 -1.45046573e-02 -1.19617723e+00  1.80234203e+00 -1.45046573e-02 -1.19617723e+00
  1.80234203e+00 -1.45046573e-02 -1.19617723e+00  1.80234203e+00 -1.45046573e-02
 -1.19617723e+00  1.80234203e+00 -1.45046573e-02 -1.19617723e+00  1.80234203e+00
 -1.45046573e-02 -1.19617723e+00  1.80234203e+00 -2.87940388e+00 -5.00763390e-01
  1.95125618e+00 -2.87940388e+00 -5.00763390e-01  1.95125618e+00 -2.87940388e+00
 -5.00763390e-01  1.95125618e+00 -2.87940388e+00 -5.00763390e-01  1.95125618e+00
 -2.87940388e+00 -5.00763390e-01  1.95125618e+00 -2.87940388e+00 -5.00763390e-01
  1.95125618e+00 -2.87940388e+00 -5.00763390e-01  1.95125618e+00 -2.87940388e+00
 -5.00763390e-01  1.95125618e+00  8.96783770e-01 -7.65761474e-01  3.61311943e+00
  8.96783770e-01 -7.65761474e-01  3.61311943e+00  1.28480952e-01 -3.24714561e+00
  1.52466441e+00  1.28480952e-01 -3.24714561e+00  1.52466441e+00 -4.36226141e+00
 -2.21108680e+00  3.56361510e+00 -4.36226141e+00 -2.21108680e+00  3.56361510e+00
 -4.36226141e+00 -2.21108680e+00  3.56361510e+00 -4.36226141e+00 -2.21108680e+00
  3.56361510e+00 -4.36226141e+00 -2.21108680e+00  3.56361510e+00 -4.36226141e+00
 -2.21108680e+00  3.56361510e+00 -4.36226141e+00 -2.21108680e+00  3.56361510e+00
 -4.36226141e+00 -2.21108680e+00  3.56361510e+00  3.05562069e+00  2.16916810e+00
  1.84832085e-01  3.05562069e+00  2.16916810e+00  1.84832085e-01  3.05562069e+00
  2.16916810e+00  1.84832085e-01  3.05562069e+00  2.16916810e+00  1.84832085e-01
  3.05562069e+00  2.16916810e+00  1.84832085e-01  3.05562069e+00  2.16916810e+00
  1.84832085e-01  3.05562069e+00  2.16916810e+00  1.84832085e-01  3.05562069e+00
  2.16916810e+00  1.84832085e-01  4.35376623e+00  3.38549542e+00 -1.76689582e+00
  4.35376623e+00  3.38549542e+00 -1.76689582e+00  4.35376623e+00  3.38549542e+00
 -1.76689582e+00  4.35376623e+00  3.38549542e+00 -1.76689582e+00  4.35376623e+00
  3.38549542e+00 -1.76689582e+00  4.35376623e+00  3.38549542e+00 -1.76689582e+00
  4.35376623e+00  3.38549542e+00 -1.76689582e+00  4.35376623e+00  3.38549542e+00
 -1.76689582e+00  4.04271157e+00  2.57930233e+00 -4.26244753e+00  4.04271157e+00
  2.57930233e+00 -4.26244753e+00  4.04271157e+00  2.57930233e+00 -4.26244753e+00
  4.04271157e+00  2.57930233e+00 -4.26244753e+00  4.04271157e+00  2.57930233e+00
 -4.26244753e+00  4.04271157e+00  2.57930233e+00 -4.26244753e+00  4.04271157e+00
  2.57930233e+00 -4.26244753e+00  4.04271157e+00  2.57930233e+00 -4.26244753e+00
  2.43257706e+00  5.54820554e-01 -4.79410608e+00  2.43257706e+00  5.54820554e-01
 -4.79410608e+00  2.43257706e+00  5.54820554e-01 -4.79410608e+00  2.43257706e+00
  5.54820554e-01 -4.79410608e+00  2.43257706e+00  5.54820554e-01 -4.79410608e+00
  2.43257706e+00  5.54820554e-01 -4.79410608e+00  2.43257706e+00  5.54820554e-01
 -4.79410608e+00  2.43257706e+00  5.54820554e-01 -4.79410608e+00  1.17193308e+00
 -6.00243400e-01 -2.80397259e+00  1.17193308e+00 -6.00243400e-01 -2.80397259e+00
  1.17193308e+00 -6.00243400e-01 -2.80397259e+00  1.17193308e+00 -6.00243400e-01
 -2.80397259e+00  1.17193308e+00 -6.00243400e-01 -2.80397259e+00  1.17193308e+00
 -6.00243400e-01 -2.80397259e+00  1.17193308e+00 -6.00243400e-01 -2.80397259e+00
  1.17193308e+00 -6.00243400e-01 -2.80397259e+00 -3.62379876e+00 -2.43057175e+00
  6.21702795e+00 -3.62379876e+00 -2.43057175e+00  6.21702795e+00 -3.62379876e+00
 -2.43057175e+00  6.21702795e+00 -3.62379876e+00 -2.43057175e+00  6.21702795e+00
 -3.62379876e+00 -2.43057175e+00  6.21702795e+00 -3.62379876e+00 -2.43057175e+00
  6.21702795e+00 -3.62379876e+00 -2.43057175e+00  6.21702795e+00 -3.62379876e+00
 -2.43057175e+00  6.21702795e+00 -4.40625919e+00 -3.95745610e+00  2.75950264e+00
 -4.40625919e+00 -3.95745610e+00  2.75950264e+00  5.60973518e+00  4.95194428e+00
 -1.33689129e+00  5.60973518e+00  4.95194428e+00 -1.33689129e+00 -3.28823990e+00
  2.25894887e+00  2.73234096e+00 -3.28823990e+00  2.25894887e+00  2.73234096e+00
 -3.28823990e+00  2.25894887e+00  2.73234096e+00 -3.28823990e+00  2.25894887e+00
  2.73234096e+00 -3.28823990e+00  2.25894887e+00  2.73234096e+00 -3.28823990e+00
  2.25894887e+00  2.73234096e+00 -3.28823990e+00  2.25894887e+00  2.73234096e+00
 -3.28823990e+00  2.25894887e+00  2.73234096e+00 -3.66826496e+00 -7.39193824e-01
  4.92820254e-02 -3.66826496e+00 -7.39193824e-01  4.92820254e-02 -2.46196563e+00
  2.66756184e+00  4.58973743e+00 -2.46196563e+00  2.66756184e+00  4.58973743e+00
 -5.31320968e+00  2.67605472e+00  2.82023316e+00 -5.31320968e+00  2.67605472e+00
  2.82023316e+00 -2.41056593e+00  3.54285903e+00  1.36704330e+00 -2.41056593e+00
  3.54285903e+00  1.36704330e+00  3.31692228e+00  2.79720640e+00  2.12463293e+00
  3.31692228e+00  2.79720640e+00  2.12463293e+00  5.04784846e+00  3.51025840e+00
 -5.79172131e+00  5.04784846e+00  3.51025840e+00 -5.79172131e+00  2.14892327e+00
 -1.34917145e-01 -6.70530404e+00  2.14892327e+00 -1.34917145e-01 -6.70530404e+00
 -3.83515593e-01 -2.58863359e+00 -3.35545478e+00 -3.83515593e-01 -2.58863359e+00
 -3.35545478e+00 -3.83515593e-01 -2.58863359e+00 -3.35545478e+00 -3.83515593e-01
 -2.58863359e+00 -3.35545478e+00 -3.83515593e-01 -2.58863359e+00 -3.35545478e+00
 -3.83515593e-01 -2.58863359e+00 -3.35545478e+00 -3.83515593e-01 -2.58863359e+00
 -3.35545478e+00 -3.83515593e-01 -2.58863359e+00 -3.35545478e+00 -3.87644785e+00
 -6.13351304e-01  7.17349125e+00 -3.87644785e+00 -6.13351304e-01  7.17349125e+00
 -1.66057980e+00 -3.06100437e+00  6.54020476e+00 -1.66057980e+00 -3.06100437e+00
  6.54020476e+00 -4.88547711e+00 -3.78828935e+00  7.13795607e+00 -4.88547711e+00
 -3.78828935e+00  7.13795607e+00
Total Energy                               R     -5.441012389720987e+02
Alpha Orbital Energies                     R   N=         256
 -2.47237054e+01 -1.43239257e+01 -1.02796061e+01 -1.02202953e+01 -1.02132833e+01
 -1.02080001e+01 -1.02068322e+01 -1.02062359e+01 -1.02049953e+01 -1.02029149e+01
 -1.01956715e+01 -1.01751812e+01 -1.22648313e+00 -9.04994391e-01 -8.72113786e-01
 -7.95799114e-01 -7.57274410e-01 -7.47412043e-01 -6.91581745e-01 -6.73312164e-01
 -6.26773583e-01 -6.10691480e-01 -5.71392293e-01 -5.42435757e-01 -5.10416128e-01
 -4.95984693e-01 -4.91578973e-01 -4.71143435e-01 -4.53753831e-01 -4.50472398e-01
 -4.43339689e-01 -4.23143992e-01 -4.07931957e-01 -4.07521585e-01 -4.03991418e-01
 -3.87236867e-01 -3.74022648e-01 -3.70292017e-01 -3.61795368e-01 -3.50314251e-01
 -3.44097234e-01 -3.33764255e-01 -2.65265533e-01 -2.54380482e-01 -2.19960266e-01
 -2.42394723e-02 -1.43752138e-02  9.99652808e-04  6.90079308e-03  1.47366295e-02
  2.51867710e-02  2.82410520e-02  3.20766999e-02  4.58633821e-02  4.81968687e-02
  5.40243464e-02  5.78139515e-02  6.34876866e-02  7.32013461e-02  7.80700977e-02
  8.40988947e-02  8.80233208e-02  9.69357679e-02  1.01038875e-01  1.10742027e-01
  1.12409474e-01  1.13117676e-01  1.17308607e-01  1.25163193e-01  1.31167798e-01
  1.35469346e-01  1.46830926e-01  1.50433353e-01  1.51524298e-01  1.59693789e-01
  1.67964205e-01  1.69752472e-01  1.71689721e-01  1.77417852e-01  1.87834101e-01
  1.95559174e-01  1.97753117e-01  1.99785196e-01  2.08803486e-01  2.15060966e-01
  2.16550518e-01  2.19971810e-01  2.25003737e-01  2.29158905e-01  2.34360172e-01
  2.40482193e-01  2.44528971e-01  2.53099137e-01  2.55606293e-01  2.57616956e-01
  2.61570204e-01  2.66413293e-01  2.68766169e-01  2.75981225e-01  2.88139918e-01
  2.91866839e-01  2.93095868e-01  3.00710553e-01  3.03904515e-01  3.12554231e-01
  3.18834398e-01  3.37250286e-01  3.42951416e-01  3.52105223e-01  3.63801137e-01
  3.67378238e-01  3.80380328e-01  3.82042061e-01  3.83360369e-01  3.98231496e-01
  3.99705139e-01  4.20049773e-01  4.44121275e-01  4.70551837e-01  4.82167998e-01
  5.79905456e-01  5.98687900e-01  6.42142267e-01  6.55877994e-01  6.60556733e-01
  6.78179498e-01  6.85488731e-01  6.91912706e-01  6.96943883e-01  7.13215954e-01
  7.20959706e-01  7.26432341e-01  7.32597678e-01  7.41423120e-01  7.51461616e-01
  7.56855319e-01  7.75035343e-01  7.91081086e-01  8.00399401e-01  8.14815048e-01
  8.18434887e-01  8.44121238e-01  8.56260473e-01  8.68797304e-01  8.95542261e-01
  9.07460838e-01  9.28481667e-01  9.32900596e-01  9.52313339e-01  9.63431054e-01
  9.74846226e-01  9.99030938e-01  1.01287792e+00  1.02187119e+00  1.03040366e+00
  1.03692450e+00  1.05072898e+00  1.07318387e+00  1.07562135e+00  1.09179488e+00
  1.10269618e+00  1.11053352e+00  1.12571985e+00  1.14726878e+00  1.15943362e+00
  1.16682480e+00  1.16935448e+00  1.20114590e+00  1.22381308e+00  1.23073889e+00
  1.24173735e+00  1.28183700e+00  1.32947145e+00  1.33790853e+00  1.35767804e+00
  1.37391396e+00  1.40336767e+00  1.40669483e+00  1.43964750e+00  1.45756754e+00
  1.46819765e+00  1.49083256e+00  1.52057032e+00  1.53435591e+00  1.59818471e+00
  1.60794111e+00  1.65606090e+00  1.67468314e+00  1.74216845e+00  1.74490350e+00
  1.76331502e+00  1.79283629e+00  1.81183107e+00  1.82358622e+00  1.83284937e+00
  1.84616163e+00  1.85214420e+00  1.87417264e+00  1.89089721e+00  1.90937542e+00
  1.94620975e+00  1.96757642e+00  1.97678106e+00  1.99333207e+00  2.01232980e+00
  2.03442640e+00  2.05693170e+00  2.07471164e+00  2.09293138e+00  2.11733504e+00
  2.13027943e+00  2.15554743e+00  2.18052403e+00  2.18406080e+00  2.21850887e+00
  2.23049772e+00  2.25357006e+00  2.26089914e+00  2.29118518e+00  2.32117452e+00
  2.33386705e+00  2.34667577e+00  2.35639557e+00  2.36784228e+00  2.40685529e+00
  2.42533611e+00  2.49093027e+00  2.50677056e+00  2.57287388e+00  2.59262208e+00
  2.63612405e+00  2.65017578e+00  2.67243849e+00  2.72171449e+00  2.73242316e+00
  2.76318910e+00  2.77227369e+00  2.78824720e+00  2.84079996e+00  2.87172519e+00
  2.96751589e+00  3.15459033e+00  3.21579836e+00  3.44719686e+00  4.08252645e+00
  4.23458284e+00  4.24819456e+00  4.26730189e+00  4.32513054e+00  4.35180143e+00
  4.38483532e+00  4.43418426e+00  4.49680089e+00  4.63920730e+00  4.75602077e+00
  6.20155026e+00
Alpha MO coefficients                      R   N=       65536
 -7.50806610e-06  6.47123846e-05 -7.61604249e-05 -7.92195711e-05  3.14688787e-05
  1.69303999e-03  1.93345668e-03  2.01233393e-03 -1.65874254e-03 -3.20853732e-05
 -5.38114644e-05 -5.46731341e-05 -4.07083882e-05 -1.71360072e-05 -3.09791328e-05
 -9.11370063e-03  1.19216966e-04 -6.45571696e-04 -2.11487491e-03 -1.34948774e-07
 -6.88532383e-05  3.01698502e-05  1.09551999e-05 -8.00827105e-05  1.35141902e-03
  4.78855184e-04  3.08582268e-04 -7.03339758e-04  1.77005890e-05  1.04477168e-05
  8.80203956e-05  2.76890074e-06 -2.36620162e-05 -1.42445459e-05  8.49173999e-03
  2.39287647e-04  1.86099771e-03 -1.19161560e-03 -1.16231190e-05 -5.20159573e-05
 -2.44356815e-05  1.40220229e-07  8.89088264e-06  1.32519844e-04  1.37944829e-04
  4.65537023e-05  6.05259078e-05 -1.87266447e-05 -1.76492378e-05 -9.96391642e-06
 -2.05381359e-06 -1.73112592e-05 -9.20197972e-07 -3.78236023e-03 -3.21192353e-04
 -5.73783403e-04  1.11736274e-04 -9.98273526e-07 -1.66644907e-04  1.15694994e-05
 -1.05394086e-04  2.21011587e-06  7.27541193e-06 -3.48381039e-06  2.51595064e-06
 -8.91958592e-06 -5.56687055e-05 -7.84853370e-06 -3.13000591e-05  5.08297645e-05
  4.77096431e-06  3.99167140e-06  5.49556376e-06  4.31297358e-07  5.23000647e-06
 -3.88690808e-06  6.74698993e-04  8.24649825e-05  1.86688993e-04 -8.59661957e-05
  1.84691329e-05  9.04526914e-05  2.09889847e-05  2.48688886e-05  1.55075134e-05
 -2.64319986e-03  4.46578998e-04  7.25704150e-04  1.08912008e-03  1.91210037e-05
  1.42757077e-05  1.35956038e-05 -6.58924009e-06 -6.86096262e-06 -9.78231502e-06
  9.90546172e-03  2.13577928e-04 -1.16372316e-06 -1.53697369e-03 -1.73170282e-05
 -9.09838336e-05  7.27351741e-06  1.18196812e-05  1.54621954e-05  1.52657268e-03
 -6.49303471e-04 -8.39722269e-04 -3.58367287e-04 -2.13046526e-05 -1.45010783e-05
  1.09471975e-06  1.64044914e-05 -1.79160677e-06  4.53723948e-06 -4.32492463e-03
  8.78743714e-04  7.66040461e-04 -1.46281982e-03  1.36953519e-05  6.22604572e-05
  1.03071026e-05  1.22475876e-05 -1.09569093e-05 -2.16056503e-03  5.80493457e-04
  5.60185165e-04 -7.31802536e-04  1.69816334e-05  2.03065464e-05  9.16857084e-06
  7.17763550e-06  3.05109878e-06  2.70190877e-06  8.53916351e-04 -7.35787259e-04
 -8.56575980e-04 -5.80000683e-04 -2.53906470e-05 -8.87562977e-06 -2.87611095e-05