Generated by Psi4
     FORCE                           RHF                       TESTBAS
Number of atoms                            I               25
Charge                                     I                0
Multiplicity                               I                1
Number of electrons                        I               96
Number of alpha electrons                  I               48
Number of beta electrons                   I               48
Number of basis functions                  I              271
Number of independent functions            I              271
Atomic numbers                             I   N=          25
           6           6           6           7           6           6
           6           6           6           1           9           1
           6           1           1           1           1           6
           1           1           1           1           8           1
           1
Nuclear charges                            R   N=          25
  6.00000000e+00  6.00000000e+00  6.00000000e+00  7.00000000e+00  6.00000000e+00
  6.00000000e+00  6.00000000e+00  6.00000000e+00  6.00000000e+00  1.00000000e+00
  9.00000000e+00  1.00000000e+00  6.00000000e+00  1.00000000e+00  1.00000000e+00
  1.00000000e+00  1.00000000e+00  6.00000000e+00  1.00000000e+00  1.00000000e+00
  1.00000000e+00  1.00000000e+00  8.00000000e+00  1.00000000e+00  1.00000000e+00
Current cartesian coordinates              R   N=          75
  4.97702067e-01 -3.08371265e-01 -7.11460416e-01 -2.13891677e+00  5.81467554e-02
  2.81215910e-01 -2.61579913e+00  1.69735641e+00  2.65529608e+00 -1.54316504e+00
  5.24134476e-01  4.92922197e+00  2.59251605e+00 -6.30066920e-01  8.98998548e-01
  5.00482526e+00 -1.08029087e+00 -6.48617288e-02  5.38702083e+00 -1.18237648e+00
 -2.67647205e+00  3.35480514e+00 -8.32857279e-01 -4.32214253e+00  9.61522830e-01
 -4.18367932e-01 -3.32318459e+00  2.26828934e+00 -5.46391135e-01  2.92146216e+00
 -9.43504154e-01 -2.94727948e-02 -4.98027658e+00  6.58130917e+00 -1.35224375e+00
  1.22181948e+00 -1.56379029e+00  4.37695446e+00  2.31335306e+00 -4.69648667e+00
  1.80176857e+00  2.76717337e+00  5.02507233e-01  4.37334501e+00  2.21687686e+00
 -2.14447995e+00  5.57308368e+00  3.90528442e+00 -2.30048587e+00  5.23979405e+00
  5.81965273e-01 -2.91096355e+00 -1.72100167e+00  5.79787880e+00 -1.49588762e+00
  1.83728345e+00  6.33544361e+00 -2.70385191e+00 -3.24929799e+00  4.41743772e+00
 -4.95233779e+00 -1.39361949e+00  6.07810626e+00 -2.08698201e+00 -2.36452622e+00
  7.58286337e+00 -3.94591961e+00 -8.66954205e-01 -8.15242204e-01  7.26207429e+00
 -1.52641010e+00 -3.44042068e+00  3.58942070e+00 -8.73824061e-01 -6.35958152e+00
Integer atomic weights                     I   N=          25
          12          12          12          14          12          12
          12          12          12           1          18           1
          12           1           1           1           1          12
           1           1           1           1          15           1
           1
Real atomic weights                        R   N=          25
  1.20000000e+01  1.20000000e+01  1.20000000e+01  1.40030740e+01  1.20000000e+01
  1.20000000e+01  1.20000000e+01  1.20000000e+01  1.20000000e+01  1.00782503e+00
  1.89984032e+01  1.00782503e+00  1.20000000e+01  1.00782503e+00  1.00782503e+00
  1.00782503e+00  1.00782503e+00  1.20000000e+01  1.00782503e+00  1.00782503e+00
  1.00782503e+00  1.00782503e+00  1.59949146e+01  1.00782503e+00  1.00782503e+00
Number of primitive shells                 I              269
Number of contracted shells                I              128
Pure/Cartesian d shells                    I                1
Pure/Cartesian f shells                    I                1
Highest angular momentum                   I                2
Largest degree of contraction              I                6
Shell types                                I   N=         128
           0           0           1           0           1           2
           0           1           0           0           1           0
           1           2           0           1           0           0
           1           0           1           2           0           1
           0           0           1           0           1           2
           0           1           0           0           1           0
           1           2           0           1           0           0
           1           0           1           2           0           1
           0           0           1           0           1           2
           0           1           0           0           1           0
           1           2           0           1           0           0
           1           0           1           2           0           1
           0           0           0           0           1           0
           1           2           0           1           0           0
           0           0           1           0           1           2
           0           1           0           0           0           0
           0           0           0           0           0           0
           1           0           1           2           0           1
           0           0           0           0           0           0
           0           0           0           0           1           0
           1           2           0           1           0           0
           0           0
Number of primitives per shell             I   N=         128
           6           3           3           1           1           1
           1           1           6           3           3           1
           1           1           1           1           6           3
           3           1           1           1           1           1
           6           3           3           1           1           1
           1           1           6           3           3           1
           1           1           1           1           6           3
           3           1           1           1           1           1
           6           3           3           1           1           1
           1           1           6           3           3           1
           1           1           1           1           6           3
           3           1           1           1           1           1
           3           1           6           3           3           1
           1           1           1           1           3           1
           6           3           3           1           1           1
           1           1           3           1           3           1
           3           1           3           1           6           3
           3           1           1           1           1           1
           3           1           3           1           3           1
           3           1           6           3           3           1
           1           1           1           1           3           1
           3           1
Shell to atom map                          I   N=         128
           1           1           1           1           1           1
           1           1           2           2           2           2
           2           2           2           2           3           3
           3           3           3           3           3           3
           4           4           4           4           4           4
           4           4           5           5           5           5
           5           5           5           5           6           6
           6           6           6           6           6           6
           7           7           7           7           7           7
           7           7           8           8           8           8
           8           8           8           8           9           9
           9           9           9           9           9           9
          10          10          11          11          11          11
          11          11          11          11          12          12
          13          13          13          13          13          13
          13          13          14          14          15          15
          16          16          17          17          18          18
          18          18          18          18          18          18
          19          19          20          20          21          21
          22          22          23          23          23          23
          23          23          23          23          24          24
          25          25
Primitive exponents                        R   N=         269
  3.04752490e+03  4.57369510e+02  1.03948690e+02  2.92101550e+01  9.28666300e+00
  3.16392700e+00  7.86827240e+00  1.88128850e+00  5.44249300e-01  7.86827240e+00
  1.88128850e+00  5.44249300e-01  1.68714400e-01  1.68714400e-01  8.00000000e-01
  4.38000000e-02  4.38000000e-02  3.04752490e+03  4.57369510e+02  1.03948690e+02
  2.92101550e+01  9.28666300e+00  3.16392700e+00  7.86827240e+00  1.88128850e+00
  5.44249300e-01  7.86827240e+00  1.88128850e+00  5.44249300e-01  1.68714400e-01
  1.68714400e-01  8.00000000e-01  4.38000000e-02  4.38000000e-02  3.04752490e+03
  4.57369510e+02  1.03948690e+02  2.92101550e+01  9.28666300e+00  3.16392700e+00
  7.86827240e+00  1.88128850e+00  5.44249300e-01  7.86827240e+00  1.88128850e+00
  5.44249300e-01  1.68714400e-01  1.68714400e-01  8.00000000e-01  4.38000000e-02
  4.38000000e-02  4.17351100e+03  6.27457900e+02  1.42902100e+02  4.02343300e+01
  1.28202100e+01  4.39043700e+00  1.16263580e+01  2.71628000e+00  7.72218000e-01
  1.16263580e+01  2.71628000e+00  7.72218000e-01  2.12031300e-01  2.12031300e-01
  8.00000000e-01  6.39000000e-02  6.39000000e-02  3.04752490e+03  4.57369510e+02
  1.03948690e+02  2.92101550e+01  9.28666300e+00  3.16392700e+00  7.86827240e+00
  1.88128850e+00  5.44249300e-01  7.86827240e+00  1.88128850e+00  5.44249300e-01
  1.68714400e-01  1.68714400e-01  8.00000000e-01  4.38000000e-02  4.38000000e-02
  3.04752490e+03  4.57369510e+02  1.03948690e+02  2.92101550e+01  9.28666300e+00
  3.16392700e+00  7.86827240e+00  1.88128850e+00  5.44249300e-01  7.86827240e+00
  1.88128850e+00  5.44249300e-01  1.68714400e-01  1.68714400e-01  8.00000000e-01
  4.38000000e-02  4.38000000e-02  3.04752490e+03  4.57369510e+02  1.03948690e+02
  2.92101550e+01  9.28666300e+00  3.16392700e+00  7.86827240e+00  1.88128850e+00
  5.44249300e-01  7.86827240e+00  1.88128850e+00  5.44249300e-01  1.68714400e-01
  1.68714400e-01  8.00000000e-01  4.38000000e-02  4.38000000e-02  3.04752490e+03
  4.57369510e+02  1.03948690e+02  2.92101550e+01  9.28666300e+00  3.16392700e+00
  7.86827240e+00  1.88128850e+00  5.44249300e-01  7.86827240e+00  1.88128850e+00
  5.44249300e-01  1.68714400e-01  1.68714400e-01  8.00000000e-01  4.38000000e-02
  4.38000000e-02  3.04752490e+03  4.57369510e+02  1.03948690e+02  2.92101550e+01
  9.28666300e+00  3.16392700e+00  7.86827240e+00  1.88128850e+00  5.44249300e-01
  7.86827240e+00  1.88128850e+00  5.44249300e-01  1.68714400e-01  1.68714400e-01
  8.00000000e-01  4.38000000e-02  4.38000000e-02  1.87311370e+01  2.82539370e+00
  6.40121700e-01  1.61277800e-01  7.00171309e+03  1.05136609e+03  2.39285690e+02
  6.73974453e+01  2.15199573e+01  7.40310130e+00  2.08479528e+01  4.80830834e+00
  1.34406986e+00  2.08479528e+01  4.80830834e+00  1.34406986e+00  3.58151393e-01
  3.58151393e-01  8.00000000e-01  1.07600000e-01  1.07600000e-01  1.87311370e+01
  2.82539370e+00  6.40121700e-01  1.61277800e-01  3.04752490e+03  4.57369510e+02
  1.03948690e+02  2.92101550e+01  9.28666300e+00  3.16392700e+00  7.86827240e+00
  1.88128850e+00  5.44249300e-01  7.86827240e+00  1.88128850e+00  5.44249300e-01
  1.68714400e-01  1.68714400e-01  8.00000000e-01  4.38000000e-02  4.38000000e-02
  1.87311370e+01  2.82539370e+00  6.40121700e-01  1.61277800e-01  1.87311370e+01
  2.82539370e+00  6.40121700e-01  1.61277800e-01  1.87311370e+01  2.82539370e+00
  6.40121700e-01  1.61277800e-01  1.87311370e+01  2.82539370e+00  6.40121700e-01
  1.61277800e-01  3.04752490e+03  4.57369510e+02  1.03948690e+02  2.92101550e+01
  9.28666300e+00  3.16392700e+00  7.86827240e+00  1.88128850e+00  5.44249300e-01
  7.86827240e+00  1.88128850e+00  5.44249300e-01  1.68714400e-01  1.68714400e-01
  8.00000000e-01  4.38000000e-02  4.38000000e-02  1.87311370e+01  2.82539370e+00
  6.40121700e-01  1.61277800e-01  1.87311370e+01  2.82539370e+00  6.40121700e-01
  1.61277800e-01  1.87311370e+01  2.82539370e+00  6.40121700e-01  1.61277800e-01
  1.87311370e+01  2.82539370e+00  6.40121700e-01  1.61277800e-01  5.48467170e+03
  8.25234950e+02  1.88046960e+02  5.29645000e+01  1.68975700e+01  5.79963530e+00
  1.55396160e+01  3.59993360e+00  1.01376180e+00  1.55396160e+01  3.59993360e+00
  1.01376180e+00  2.70005800e-01  2.70005800e-01  8.00000000e-01  8.45000000e-02
  8.45000000e-02  1.87311370e+01  2.82539370e+00  6.40121700e-01  1.61277800e-01
  1.87311370e+01  2.82539370e+00  6.40121700e-01  1.61277800e-01
Contraction coefficients                   R   N=         269
  1.83470016e-03  1.40373012e-02  6.88426061e-02  2.32184421e-01  4.67941342e-01
  3.62312032e-01 -1.19332409e-01 -1.60854212e-01  1.14345648e+00  6.89990956e-02
  3.16423980e-01  7.44308252e-01  1.00000000e+00  1.00000000e+00  1.00000000e+00
  1.00000000e+00  1.00000000e+00  1.83470016e-03  1.40373012e-02  6.88426061e-02
  2.32184421e-01  4.67941342e-01  3.62312032e-01 -1.19332409e-01 -1.60854212e-01
  1.14345648e+00  6.89990956e-02  3.16423980e-01  7.44308252e-01  1.00000000e+00
  1.00000000e+00  1.00000000e+00  1.00000000e+00  1.00000000e+00  1.83470016e-03
  1.40373012e-02  6.88426061e-02  2.32184421e-01  4.67941342e-01  3.62312032e-01
 -1.19332409e-01 -1.60854212e-01  1.14345648e+00  6.89990956e-02  3.16423980e-01
  7.44308252e-01  1.00000000e+00  1.00000000e+00  1.00000000e+00  1.00000000e+00
  1.00000000e+00  1.83479944e-03  1.39949958e-02  6.85869792e-02  2.32240930e-01
  4.69069858e-01  3.60454891e-01 -1.14961023e-01 -1.69118034e-01  1.14585223e+00
  6.75800232e-02  3.23907111e-01  7.40895255e-01  1.00000000e+00  1.00000000e+00
  1.00000000e+00  1.00000000e+00  1.00000000e+00  1.83470016e-03  1.40373012e-02
  6.88426061e-02  2.32184421e-01  4.67941342e-01  3.62312032e-01 -1.19332409e-01
 -1.60854212e-01  1.14345648e+00  6.89990956e-02  3.16423980e-01  7.44308252e-01
  1.00000000e+00  1.00000000e+00  1.00000000e+00  1.00000000e+00  1.00000000e+00
  1.83470016e-03  1.40373012e-02  6.88426061e-02  2.32184421e-01  4.67941342e-01
  3.62312032e-01 -1.19332409e-01 -1.60854212e-01  1.14345648e+00  6.89990956e-02
  3.16423980e-01  7.44308252e-01  1.00000000e+00  1.00000000e+00  1.00000000e+00
  1.00000000e+00  1.00000000e+00  1.83470016e-03  1.40373012e-02  6.88426061e-02
  2.32184421e-01  4.67941342e-01  3.62312032e-01 -1.19332409e-01 -1.60854212e-01
  1.14345648e+00  6.89990956e-02  3.16423980e-01  7.44308252e-01  1.00000000e+00
  1.00000000e+00  1.00000000e+00  1.00000000e+00  1.00000000e+00  1.83470016e-03
  1.40373012e-02  6.88426061e-02  2.32184421e-01  4.67941342e-01  3.62312032e-01
 -1.19332409e-01 -1.60854212e-01  1.14345648e+00  6.89990956e-02  3.16423980e-01
  7.44308252e-01  1.00000000e+00  1.00000000e+00  1.00000000e+00  1.00000000e+00
  1.00000000e+00  1.83470016e-03  1.40373012e-02  6.88426061e-02  2.32184421e-01
  4.67941342e-01  3.62312032e-01 -1.19332409e-01 -1.60854212e-01  1.14345648e+00
  6.89990956e-02  3.16423980e-01  7.44308252e-01  1.00000000e+00  1.00000000e+00
  1.00000000e+00  1.00000000e+00  1.00000000e+00  3.34945995e-02  2.34726947e-01
  8.13757318e-01  1.00000000e+00  1.81961690e-03  1.39160796e-02  6.84053245e-02
  2.33185760e-01  4.71267439e-01  3.56618546e-01 -1.08506975e-01 -1.46451658e-01
  1.12868858e+00  7.16287242e-02  3.45912103e-01  7.22469956e-01  1.00000000e+00
  1.00000000e+00  1.00000000e+00  1.00000000e+00  1.00000000e+00  3.34945995e-02
  2.34726947e-01  8.13757318e-01  1.00000000e+00  1.83470016e-03  1.40373012e-02
  6.88426061e-02  2.32184421e-01  4.67941342e-01  3.62312032e-01 -1.19332409e-01
 -1.60854212e-01  1.14345648e+00  6.89990956e-02  3.16423980e-01  7.44308252e-01
  1.00000000e+00  1.00000000e+00  1.00000000e+00  1.00000000e+00  1.00000000e+00
  3.34945995e-02  2.34726947e-01  8.13757318e-01  1.00000000e+00  3.34945995e-02
  2.34726947e-01  8.13757318e-01  1.00000000e+00  3.34945995e-02  2.34726947e-01
  8.13757318e-01  1.00000000e+00  3.34945995e-02  2.34726947e-01  8.13757318e-01
  1.00000000e+00  1.83470016e-03  1.40373012e-02  6.88426061e-02  2.32184421e-01
  4.67941342e-01  3.62312032e-01 -1.19332409e-01 -1.60854212e-01  1.14345648e+00
  6.89990956e-02  3.16423980e-01  7.44308252e-01  1.00000000e+00  1.00000000e+00
  1.00000000e+00  1.00000000e+00  1.00000000e+00  3.34945995e-02  2.34726947e-01
  8.13757318e-01  1.00000000e+00  3.34945995e-02  2.34726947e-01  8.13757318e-01
  1.00000000e+00  3.34945995e-02  2.34726947e-01  8.13757318e-01  1.00000000e+00
  3.34945995e-02  2.34726947e-01  8.13757318e-01  1.00000000e+00  1.83109981e-03
  1.39500985e-02  6.84450927e-02  2.32714275e-01  4.70192950e-01  3.58520862e-01
 -1.10777504e-01 -1.48026305e-01  1.13076704e+00  7.08742995e-02  3.39752798e-01
  7.27158595e-01  1.00000000e+00  1.00000000e+00  1.00000000e+00  1.00000000e+00
  1.00000000e+00  3.34945995e-02  2.34726947e-01  8.13757318e-01  1.00000000e+00
  3.34945995e-02  2.34726947e-01  8.13757318e-01  1.00000000e+00
Coordinates of each shell                  R   N=         384
  4.97702067e-01 -3.08371265e-01 -7.11460416e-01  4.97702067e-01 -3.08371265e-01
 -7.11460416e-01  4.97702067e-01 -3.08371265e-01 -7.11460416e-01  4.97702067e-01
 -3.08371265e-01 -7.11460416e-01  4.97702067e-01 -3.08371265e-01 -7.11460416e-01
  4.97702067e-01 -3.08371265e-01 -7.11460416e-01  4.97702067e-01 -3.08371265e-01
 -7.11460416e-01  4.97702067e-01 -3.08371265e-01 -7.11460416e-01 -2.13891677e+00
  5.81467554e-02  2.81215910e-01 -2.13891677e+00  5.81467554e-02  2.81215910e-01
 -2.13891677e+00  5.81467554e-02  2.81215910e-01 -2.13891677e+00  5.81467554e-02
  2.81215910e-01 -2.13891677e+00  5.81467554e-02  2.81215910e-01 -2.13891677e+00
  5.81467554e-02  2.81215910e-01 -2.13891677e+00  5.81467554e-02  2.81215910e-01
 -2.13891677e+00  5.81467554e-02  2.81215910e-01 -2.61579913e+00  1.69735641e+00
  2.65529608e+00 -2.61579913e+00  1.69735641e+00  2.65529608e+00 -2.61579913e+00
  1.69735641e+00  2.65529608e+00 -2.61579913e+00  1.69735641e+00  2.65529608e+00
 -2.61579913e+00  1.69735641e+00  2.65529608e+00 -2.61579913e+00  1.69735641e+00
  2.65529608e+00 -2.61579913e+00  1.69735641e+00  2.65529608e+00 -2.61579913e+00
  1.69735641e+00  2.65529608e+00 -1.54316504e+00  5.24134476e-01  4.92922197e+00
 -1.54316504e+00  5.24134476e-01  4.92922197e+00 -1.54316504e+00  5.24134476e-01
  4.92922197e+00 -1.54316504e+00  5.24134476e-01  4.92922197e+00 -1.54316504e+00
  5.24134476e-01  4.92922197e+00 -1.54316504e+00  5.24134476e-01  4.92922197e+00
 -1.54316504e+00  5.24134476e-01  4.92922197e+00 -1.54316504e+00  5.24134476e-01
  4.92922197e+00  2.59251605e+00 -6.30066920e-01  8.98998548e-01  2.59251605e+00
 -6.30066920e-01  8.98998548e-01  2.59251605e+00 -6.30066920e-01  8.98998548e-01
  2.59251605e+00 -6.30066920e-01  8.98998548e-01  2.59251605e+00 -6.30066920e-01
  8.98998548e-01  2.59251605e+00 -6.30066920e-01  8.98998548e-01  2.59251605e+00
 -6.30066920e-01  8.98998548e-01  2.59251605e+00 -6.30066920e-01  8.98998548e-01
  5.00482526e+00 -1.08029087e+00 -6.48617288e-02  5.00482526e+00 -1.08029087e+00
 -6.48617288e-02  5.00482526e+00 -1.08029087e+00 -6.48617288e-02  5.00482526e+00
 -1.08029087e+00 -6.48617288e-02  5.00482526e+00 -1.08029087e+00 -6.48617288e-02
  5.00482526e+00 -1.08029087e+00 -6.48617288e-02  5.00482526e+00 -1.08029087e+00
 -6.48617288e-02  5.00482526e+00 -1.08029087e+00 -6.48617288e-02  5.38702083e+00
 -1.18237648e+00 -2.67647205e+00  5.38702083e+00 -1.18237648e+00 -2.67647205e+00
  5.38702083e+00 -1.18237648e+00 -2.67647205e+00  5.38702083e+00 -1.18237648e+00
 -2.67647205e+00  5.38702083e+00 -1.18237648e+00 -2.67647205e+00  5.38702083e+00
 -1.18237648e+00 -2.67647205e+00  5.38702083e+00 -1.18237648e+00 -2.67647205e+00
  5.38702083e+00 -1.18237648e+00 -2.67647205e+00  3.35480514e+00 -8.32857279e-01
 -4.32214253e+00  3.35480514e+00 -8.32857279e-01 -4.32214253e+00  3.35480514e+00
 -8.32857279e-01 -4.32214253e+00  3.35480514e+00 -8.32857279e-01 -4.32214253e+00
  3.35480514e+00 -8.32857279e-01 -4.32214253e+00  3.35480514e+00 -8.32857279e-01
 -4.32214253e+00  3.35480514e+00 -8.32857279e-01 -4.32214253e+00  3.35480514e+00
 -8.32857279e-01 -4.32214253e+00  9.61522830e-01 -4.18367932e-01 -3.32318459e+00
  9.61522830e-01 -4.18367932e-01 -3.32318459e+00  9.61522830e-01 -4.18367932e-01
 -3.32318459e+00  9.61522830e-01 -4.18367932e-01 -3.32318459e+00  9.61522830e-01
 -4.18367932e-01 -3.32318459e+00  9.61522830e-01 -4.18367932e-01 -3.32318459e+00
  9.61522830e-01 -4.18367932e-01 -3.32318459e+00  9.61522830e-01 -4.18367932e-01
 -3.32318459e+00  2.26828934e+00 -5.46391135e-01  2.92146216e+00  2.26828934e+00
 -5.46391135e-01  2.92146216e+00 -9.43504154e-01 -2.94727948e-02 -4.98027658e+00
 -9.43504154e-01 -2.94727948e-02 -4.98027658e+00 -9.43504154e-01 -2.94727948e-02
 -4.98027658e+00 -9.43504154e-01 -2.94727948e-02 -4.98027658e+00 -9.43504154e-01
 -2.94727948e-02 -4.98027658e+00 -9.43504154e-01 -2.94727948e-02 -4.98027658e+00
 -9.43504154e-01 -2.94727948e-02 -4.98027658e+00 -9.43504154e-01 -2.94727948e-02
 -4.98027658e+00  6.58130917e+00 -1.35224375e+00  1.22181948e+00  6.58130917e+00
 -1.35224375e+00  1.22181948e+00 -1.56379029e+00  4.37695446e+00  2.31335306e+00
 -1.56379029e+00  4.37695446e+00  2.31335306e+00 -1.56379029e+00  4.37695446e+00
  2.31335306e+00 -1.56379029e+00  4.37695446e+00  2.31335306e+00 -1.56379029e+00
  4.37695446e+00  2.31335306e+00 -1.56379029e+00  4.37695446e+00  2.31335306e+00
 -1.56379029e+00  4.37695446e+00  2.31335306e+00 -1.56379029e+00  4.37695446e+00
  2.31335306e+00 -4.69648667e+00  1.80176857e+00  2.76717337e+00 -4.69648667e+00
  1.80176857e+00  2.76717337e+00  5.02507233e-01  4.37334501e+00  2.21687686e+00
  5.02507233e-01  4.37334501e+00  2.21687686e+00 -2.14447995e+00  5.57308368e+00
  3.90528442e+00 -2.14447995e+00  5.57308368e+00  3.90528442e+00 -2.30048587e+00
  5.23979405e+00  5.81965273e-01 -2.30048587e+00  5.23979405e+00  5.81965273e-01
 -2.91096355e+00 -1.72100167e+00  5.79787880e+00 -2.91096355e+00 -1.72100167e+00
  5.79787880e+00 -2.91096355e+00 -1.72100167e+00  5.79787880e+00 -2.91096355e+00
 -1.72100167e+00  5.79787880e+00 -2.91096355e+00 -1.72100167e+00  5.79787880e+00
 -2.91096355e+00 -1.72100167e+00  5.79787880e+00 -2.91096355e+00 -1.72100167e+00
  5.79787880e+00 -2.91096355e+00 -1.72100167e+00  5.79787880e+00 -1.49588762e+00
  1.83728345e+00  6.33544361e+00 -1.49588762e+00  1.83728345e+00  6.33544361e+00
 -2.70385191e+00 -3.24929799e+00  4.41743772e+00 -2.70385191e+00 -3.24929799e+00
  4.41743772e+00 -4.95233779e+00 -1.39361949e+00  6.07810626e+00 -4.95233779e+00
 -1.39361949e+00  6.07810626e+00 -2.08698201e+00 -2.36452622e+00  7.58286337e+00
 -2.08698201e+00 -2.36452622e+00  7.58286337e+00 -3.94591961e+00 -8.66954205e-01
 -8.15242204e-01 -3.94591961e+00 -8.66954205e-01 -8.15242204e-01 -3.94591961e+00
 -8.66954205e-01 -8.15242204e-01 -3.94591961e+00 -8.66954205e-01 -8.15242204e-01
 -3.94591961e+00 -8.66954205e-01 -8.15242204e-01 -3.94591961e+00 -8.66954205e-01
 -8.15242204e-01 -3.94591961e+00 -8.66954205e-01 -8.15242204e-01 -3.94591961e+00
 -8.66954205e-01 -8.15242204e-01  7.26207429e+00 -1.52641010e+00 -3.44042068e+00
  7.26207429e+00 -1.52641010e+00 -3.44042068e+00  3.58942070e+00 -8.73824061e-01
 -6.35958152e+00  3.58942070e+00 -8.73824061e-01 -6.35958152e+00
Total Energy                               R     -6.181121696509439e+02
Alpha Orbital Energies                     R   N=         271
 -2.47240991e+01 -1.91542309e+01 -1.43442345e+01 -1.02922308e+01 -1.02879408e+01
 -1.02341139e+01 -1.02194392e+01 -1.02178076e+01 -1.02150388e+01 -1.02115585e+01
 -1.02110401e+01 -1.02077588e+01 -1.01969306e+01 -1.23153587e+00 -1.05170078e+00
 -9.23060350e-01 -8.76778119e-01 -7.88384808e-01 -7.66556667e-01 -7.61997636e-01
 -6.74965791e-01 -6.67304531e-01 -6.39917386e-01 -6.24316206e-01 -5.73838623e-01
 -5.37506625e-01 -5.07510621e-01 -5.01161199e-01 -4.91481792e-01 -4.77581492e-01
 -4.74914024e-01 -4.65484013e-01 -4.51721881e-01 -4.39986849e-01 -4.29291762e-01
 -4.14473517e-01 -4.04874031e-01 -3.98652816e-01 -3.89751475e-01 -3.84746005e-01
 -3.75167624e-01 -3.70796436e-01 -3.65236600e-01 -3.56550508e-01 -2.75017440e-01
 -2.64311902e-01 -2.57851657e-01 -2.40859045e-01 -6.47194936e-02 -2.23807059e-02
 -3.95431222e-03  3.40871128e-03  7.60499303e-03  1.78534739e-02  2.32508230e-02
  2.82298887e-02  3.51798965e-02  4.35912556e-02  5.04911268e-02  5.53253240e-02
  5.91526199e-02  6.27712096e-02  7.21378434e-02  8.08818197e-02  8.21379183e-02
  9.32473006e-02  9.50621022e-02  1.01940934e-01  1.04506356e-01  1.10371330e-01
  1.19269172e-01  1.24733822e-01  1.26643379e-01  1.31854115e-01  1.41204398e-01
  1.42697616e-01  1.49210572e-01  1.53931516e-01  1.56702616e-01  1.70412900e-01
  1.77585253e-01  1.79497707e-01  1.80218734e-01  1.83453747e-01  1.89742321e-01
  1.95621256e-01  1.97464204e-01  2.03503396e-01  2.11715227e-01  2.14955887e-01
  2.17376213e-01  2.24719463e-01  2.27026042e-01  2.29863776e-01  2.40313767e-01
  2.42586605e-01  2.49609356e-01  2.50113072e-01  2.58041631e-01  2.66604188e-01
  2.70542758e-01  2.73961756e-01  2.80709188e-01  2.84798462e-01  2.91199242e-01
  2.99192738e-01  3.07496479e-01  3.13558967e-01  3.24790068e-01  3.30824177e-01
  3.35025056e-01  3.47571573e-01  3.49256430e-01  3.51533850e-01  3.58079973e-01
  3.69525039e-01  3.77297474e-01  3.81354019e-01  3.92432484e-01  4.03609524e-01
  4.11107198e-01  4.33657856e-01  4.38249280e-01  4.55188573e-01  4.75758182e-01
  5.06796183e-01  5.10493306e-01  5.93814999e-01  6.08309989e-01  6.46129640e-01
  6.55163072e-01  6.70783557e-01  6.71335879e-01  6.83842386e-01  6.93209830e-01
  7.01056416e-01  7.13017765e-01  7.16867018e-01  7.34096746e-01  7.41936892e-01
  7.49233321e-01  7.71275104e-01  7.74893074e-01  7.82800646e-01  7.94981065e-01
  8.05205515e-01  8.23099319e-01  8.44593754e-01  8.56945099e-01  8.72441153e-01
  8.81623959e-01  8.93396604e-01  9.08579962e-01  9.30571658e-01  9.45643566e-01
  9.57916344e-01  9.70017662e-01  9.82224374e-01  9.96156595e-01  1.00366061e+00
  1.01940163e+00  1.03144667e+00  1.03844510e+00  1.06071884e+00  1.07197826e+00
  1.07381216e+00  1.09186244e+00  1.10676178e+00  1.13132975e+00  1.13852386e+00
  1.14586285e+00  1.14949863e+00  1.17294945e+00  1.21140958e+00  1.21479083e+00
  1.23466286e+00  1.27234876e+00  1.28577186e+00  1.29722136e+00  1.33574516e+00
  1.34186364e+00  1.34956851e+00  1.36406956e+00  1.38859532e+00  1.40921644e+00
  1.41838873e+00  1.45082578e+00  1.45567932e+00  1.47260844e+00  1.47966867e+00
  1.48712536e+00  1.50221680e+00  1.54765702e+00  1.61334326e+00  1.64172973e+00
  1.65357731e+00  1.67095992e+00  1.69568126e+00  1.71493021e+00  1.74206158e+00
  1.74699267e+00  1.76296064e+00  1.79372934e+00  1.81794141e+00  1.82830162e+00
  1.84161184e+00  1.87979834e+00  1.88323928e+00  1.90562831e+00  1.93255841e+00
  1.94106142e+00  1.96630303e+00  1.96915224e+00  1.98369917e+00  1.98811605e+00
  1.99396310e+00  2.01182863e+00  2.04975805e+00  2.06015683e+00  2.07383756e+00
  2.10677894e+00  2.12998668e+00  2.13217848e+00  2.15225926e+00  2.18070503e+00
  2.22306068e+00  2.23350588e+00  2.25028585e+00  2.27437449e+00  2.28292265e+00
  2.29724320e+00  2.30230170e+00  2.34003286e+00  2.35945679e+00  2.37427637e+00
  2.39091620e+00  2.41884832e+00  2.44716285e+00  2.46806735e+00  2.52286532e+00
  2.56916083e+00  2.60648966e+00  2.61286260e+00  2.62780514e+00  2.65347221e+00
  2.70000366e+00  2.71418615e+00  2.74361633e+00  2.77288767e+00  2.80735280e+00
  2.84032614e+00  2.85687472e+00  2.91736600e+00  3.00117482e+00  3.17493297e+00
  3.22572709e+00  3.23924055e+00  3.44590532e+00  4.12889584e+00  4.22643498e+00
  4.25017877e+00  4.25591040e+00  4.31452390e+00  4.34817845e+00  4.35277179e+00
  4.41510400e+00  4.44726909e+00  4.55483154e+00  4.65644008e+00  4.77562827e+00
  6.25358143e+00
Alpha MO coefficients                      R   N=       73441
 -9.16281061e-06  5.15300375e-05 -1.09096651e-04  1.77106286e-05 -1.84053004e-05
  1.86281478e-03  3.38691615e-03 -6.05421318e-04 -5.27147755e-04 -4.94360934e-05
 -9.17866585e-06 -8.04674331e-05  1.15336182e-05 -2.45064088e-05  5.38936678e-06
 -1.13094324e-03  2.65060351e-03 -2.88211926e-04  2.23636917e-03  1.40609909e-06
 -6.52609579e-05  4.56186210e-05 -2.08958008e-05 -6.36074419e-05  1.27639947e-03
  1.16406253e-03  8.36917475e-05 -3.47923919e-04  4.13966670e-05  2.30910955e-05
  5.99326056e-05 -1.30593763e-05 -5.06126178e-05  1.46707057e-05  4.30208296e-03
 -9.50108018e-05  1.09688869e-03  3.37239594e-03  1.25994243e-06  1.56355954e-05
 -1.31957797e-06  1.83778316e-05  1.17479942e-05 -4.37906218e-05 -2.02000343e-04
 -1.47973426e-04  3.88852030e-05  3.49422758e-06 -1.51872928e-06 -1.49114870e-05
  1.30147789e-05  2.34593305e-05 -7.15249913e-06 -4.40701327e-03 -1.89375672e-04
  6.71460332e-04  3.94787416e-04  4.97831210e-06  2.12871143e-05 -9.30169067e-06
 -8.18133563e-06 -5.66171396e-06 -1.23875352e-04  7.62393284e-05  8.22247201e-05
  4.86147993e-05  8.08474688e-06  1.33630707e-05  4.06774116e-06 -3.96703164e-06
 -5.46572083e-06  3.01516388e-07  7.95138734e-05  4.40762240e-05  1.51887978e-04
  2.31087595e-05  2.14545037e-05  1.05770945e-04  1.85911953e-05 -3.07365155e-06
  3.16035178e-05 -2.71862681e-03  2.50132153e-04 -3.45430563e-06  1.44838550e-03
  2.48616789e-05  3.04505117e-05 -1.74342956e-06  7.18750210e-07 -1.47313258e-05