Generated by Psi4
     FORCE                           RHF                       TESTBAS
Number of atoms                            I               31
Charge                                     I                0
Multiplicity                               I                1
Number of electrons                        I              140
Number of alpha electrons                  I               70
Number of beta electrons                   I               70
Number of basis functions                  I              333
Number of independent functions            I              333
Atomic numbers                             I   N=          31
           6           6           6           1           1           7
           6           6           6           6           6           1
           6           1           1           1           1           1
           1           8           6           1           1           1
           1           8           6           1           1           1
          35
Nuclear charges                            R   N=          31
  6.00000000e+00  6.00000000e+00  6.00000000e+00  1.00000000e+00  1.00000000e+00
  7.00000000e+00  6.00000000e+00  6.00000000e+00  6.00000000e+00  6.00000000e+00
  6.00000000e+00  1.00000000e+00  6.00000000e+00  1.00000000e+00  1.00000000e+00
  1.00000000e+00  1.00000000e+00  1.00000000e+00  1.00000000e+00  8.00000000e+00
  6.00000000e+00  1.00000000e+00  1.00000000e+00  1.00000000e+00  1.00000000e+00
  8.00000000e+00  6.00000000e+00  1.00000000e+00  1.00000000e+00  1.00000000e+00
  3.50000000e+01
Current cartesian coordinates              R   N=          93
 -8.91564912e-01 -1.78407889e+00  2.27524556e+00 -2.17664722e+00 -3.19447857e+00
  4.40567851e+00 -4.95674697e+00 -2.37927084e+00  4.92757792e+00 -1.08750162e+00
 -2.98112487e+00  6.15321446e+00 -2.19416567e+00 -5.21951077e+00  3.94340276e+00
 -6.22905398e+00 -3.99538380e+00  6.79347857e+00  8.34640128e-01  1.87713952e-01
  2.73140278e+00  1.96906487e+00  1.45893763e+00  7.06880297e-01  1.38836163e+00
  7.87071215e-01 -1.77237161e+00 -3.18539856e-01 -1.16810924e+00 -2.29337531e+00
 -1.42221901e+00 -2.42160081e+00 -2.37463284e-01 -2.73357413e+00 -3.96091995e+00
 -5.81344546e-01 -5.16896683e+00  3.73425956e-01  5.78612098e+00 -6.01897447e+00
 -2.58848059e+00  3.15458635e+00 -4.15242035e+00  6.67023038e-01  7.57131139e+00
 -7.15541624e+00  8.72120734e-01  6.07877934e+00 -4.35742103e+00  1.66163302e+00
  4.38581594e+00 -5.38288309e+00 -3.82894252e+00  8.51777752e+00 -6.11963566e+00
 -5.85252948e+00  6.29477358e+00 -7.81887206e-01 -1.72627860e+00 -4.76684883e+00
 -2.50716098e+00 -3.70117182e+00 -5.34013016e+00 -2.57659612e+00 -3.79353591e+00
 -7.39916585e+00 -4.40267479e+00 -3.28811403e+00 -4.60369466e+00 -1.85085291e+00
 -5.52152139e+00 -4.59032155e+00  3.30562665e+00  2.97472205e+00  1.02341862e+00
  1.32079687e+00  7.55511686e-01  5.21623555e+00  3.09361098e+00  2.69150665e+00
  5.77476258e+00  4.97302909e+00  2.23737571e+00  5.02123992e+00  3.18651921e+00
  2.78821090e+00  7.83312687e+00  2.47301536e+00  4.52565155e+00  5.02849618e+00
  2.97574463e+00  2.56911549e+00 -4.48685482e+00
Integer atomic weights                     I   N=          31
          12          12          12           1           1          14
          12          12          12          12          12           1
          12           1           1           1           1           1
           1          15          12           1           1           1
           1          15          12           1           1           1
          78
Real atomic weights                        R   N=          31
  1.20000000e+01  1.20000000e+01  1.20000000e+01  1.00782503e+00  1.00782503e+00
  1.40030740e+01  1.20000000e+01  1.20000000e+01  1.20000000e+01  1.20000000e+01
  1.20000000e+01  1.00782503e+00  1.20000000e+01  1.00782503e+00  1.00782503e+00
  1.00782503e+00  1.00782503e+00  1.00782503e+00  1.00782503e+00  1.59949146e+01
  1.20000000e+01  1.00782503e+00  1.00782503e+00  1.00782503e+00  1.00782503e+00
  1.59949146e+01  1.20000000e+01  1.00782503e+00  1.00782503e+00  1.00782503e+00
  7.89183376e+01
Number of primitive shells                 I              345
Number of contracted shells                I              156
Pure/Cartesian d shells                    I                1
Pure/Cartesian f shells                    I                1
Highest angular momentum                   I                2
Largest degree of contraction              I                6
Shell types                                I   N=         156
           0           0           1           0           1           2
           0           1           0           0           1           0
           1           2           0           1           0           0
           1           0           1           2           0           1
           0           0           0           0           0           0
           1           0           1           2           0           1
           0           0           1           0           1           2
           0           1           0           0           1           0
           1           2           0           1           0           0
           1           0           1           2           0           1
           0           0           1           0           1           2
           0           1           0           0           1           0
           1           2           0           1           0           0
           0           0           1           0           1           2
           0           1           0           0           0           0
           0           0           0           0           0           0
           0           0           0           0           1           0
           1           2           0           1           0           0
           1           0           1           2           0           1
           0           0           0           0           0           0
           0           0           0           0           1           0
           1           2           0           1           0           0
           1           0           1           2           0           1
           0           0           0           0           0           0
           0           0           1           0           1           0
           1           0           1           2           2           2
Number of primitives per shell             I   N=         156
           6           3           3           1           1           1
           1           1           6           3           3           1
           1           1           1           1           6           3
           3           1           1           1           1           1
           3           1           3           1           6           3
           3           1           1           1           1           1
           6           3           3           1           1           1
           1           1           6           3           3           1
           1           1           1           1           6           3
           3           1           1           1           1           1
           6           3           3           1           1           1
           1           1           6           3           3           1
           1           1           1           1           3           1
           6           3           3           1           1           1
           1           1           3           1           3           1
           3           1           3           1           3           1
           3           1           6           3           3           1
           1           1           1           1           6           3
           3           1           1           1           1           1
           3           1           3           1           3           1
           3           1           6           3           3           1
           1           1           1           1           6           3
           3           1           1           1           1           1
           3           1           3           1           3           1
           6           6           6           6           6           3
           3           1           1           3           1           1
Shell to atom map                          I   N=         156
           1           1           1           1           1           1
           1           1           2           2           2           2
           2           2           2           2           3           3
           3           3           3           3           3           3
           4           4           5           5           6           6
           6           6           6           6           6           6
           7           7           7           7           7           7
           7           7           8           8           8           8
           8           8           8           8           9           9
           9           9           9           9           9           9
          10          10          10          10          10          10
          10          10          11          11          11          11
          11          11          11          11          12          12
          13          13          13          13          13          13
          13          13          14          14          15          15
          16          16          17          17          18          18
          19          19          20          20          20          20
          20          20          20          20          21          21
          21          21          21          21          21          21
          22          22          23          23          24          24
          25          25          26          26          26          26
          26          26          26          26          27          27
          27          27          27          27          27          27
          28          28          29          29          30          30
          31          31          31          31          31          31
          31          31          31          31          31          31
Primitive exponents                        R   N=         345
  3.04752490e+03  4.57369510e+02  1.03948690e+02  2.92101550e+01  9.28666300e+00
  3.16392700e+00  7.86827240e+00  1.88128850e+00  5.44249300e-01  7.86827240e+00
  1.88128850e+00  5.44249300e-01  1.68714400e-01  1.68714400e-01  8.00000000e-01
  4.38000000e-02  4.38000000e-02  3.04752490e+03  4.57369510e+02  1.03948690e+02
  2.92101550e+01  9.28666300e+00  3.16392700e+00  7.86827240e+00  1.88128850e+00
  5.44249300e-01  7.86827240e+00  1.88128850e+00  5.44249300e-01  1.68714400e-01
  1.68714400e-01  8.00000000e-01  4.38000000e-02  4.38000000e-02  3.04752490e+03
  4.57369510e+02  1.03948690e+02  2.92101550e+01  9.28666300e+00  3.16392700e+00
  7.86827240e+00  1.88128850e+00  5.44249300e-01  7.86827240e+00  1.88128850e+00
  5.44249300e-01  1.68714400e-01  1.68714400e-01  8.00000000e-01  4.38000000e-02
  4.38000000e-02  1.87311370e+01  2.82539370e+00  6.40121700e-01  1.61277800e-01
  1.87311370e+01  2.82539370e+00  6.40121700e-01  1.61277800e-01  4.17351100e+03
  6.27457900e+02  1.42902100e+02  4.02343300e+01  1.28202100e+01  4.39043700e+00
  1.16263580e+01  2.71628000e+00  7.72218000e-01  1.16263580e+01  2.71628000e+00
  7.72218000e-01  2.12031300e-01  2.12031300e-01  8.00000000e-01  6.39000000e-02
  6.39000000e-02  3.04752490e+03  4.57369510e+02  1.03948690e+02  2.92101550e+01
  9.28666300e+00  3.16392700e+00  7.86827240e+00  1.88128850e+00  5.44249300e-01
  7.86827240e+00  1.88128850e+00  5.44249300e-01  1.68714400e-01  1.68714400e-01
  8.00000000e-01  4.38000000e-02  4.38000000e-02  3.04752490e+03  4.57369510e+02
  1.03948690e+02  2.92101550e+01  9.28666300e+00  3.16392700e+00  7.86827240e+00
  1.88128850e+00  5.44249300e-01  7.86827240e+00  1.88128850e+00  5.44249300e-01
  1.68714400e-01  1.68714400e-01  8.00000000e-01  4.38000000e-02  4.38000000e-02
  3.04752490e+03  4.57369510e+02  1.03948690e+02  2.92101550e+01  9.28666300e+00
  3.16392700e+00  7.86827240e+00  1.88128850e+00  5.44249300e-01  7.86827240e+00
  1.88128850e+00  5.44249300e-01  1.68714400e-01  1.68714400e-01  8.00000000e-01
  4.38000000e-02  4.38000000e-02  3.04752490e+03  4.57369510e+02  1.03948690e+02
  2.92101550e+01  9.28666300e+00  3.16392700e+00  7.86827240e+00  1.88128850e+00
  5.44249300e-01  7.86827240e+00  1.88128850e+00  5.44249300e-01  1.68714400e-01
  1.68714400e-01  8.00000000e-01  4.38000000e-02  4.38000000e-02  3.04752490e+03
  4.57369510e+02  1.03948690e+02  2.92101550e+01  9.28666300e+00  3.16392700e+00
  7.86827240e+00  1.88128850e+00  5.44249300e-01  7.86827240e+00  1.88128850e+00
  5.44249300e-01  1.68714400e-01  1.68714400e-01  8.00000000e-01  4.38000000e-02
  4.38000000e-02  1.87311370e+01  2.82539370e+00  6.40121700e-01  1.61277800e-01
  3.04752490e+03  4.57369510e+02  1.03948690e+02  2.92101550e+01  9.28666300e+00
  3.16392700e+00  7.86827240e+00  1.88128850e+00  5.44249300e-01  7.86827240e+00
  1.88128850e+00  5.44249300e-01  1.68714400e-01  1.68714400e-01  8.00000000e-01
  4.38000000e-02  4.38000000e-02  1.87311370e+01  2.82539370e+00  6.40121700e-01
  1.61277800e-01  1.87311370e+01  2.82539370e+00  6.40121700e-01  1.61277800e-01
  1.87311370e+01  2.82539370e+00  6.40121700e-01  1.61277800e-01  1.87311370e+01
  2.82539370e+00  6.40121700e-01  1.61277800e-01  1.87311370e+01  2.82539370e+00
  6.40121700e-01  1.61277800e-01  1.87311370e+01  2.82539370e+00  6.40121700e-01
  1.61277800e-01  5.48467170e+03  8.25234950e+02  1.88046960e+02  5.29645000e+01
  1.68975700e+01  5.79963530e+00  1.55396160e+01  3.59993360e+00  1.01376180e+00
  1.55396160e+01  3.59993360e+00  1.01376180e+00  2.70005800e-01  2.70005800e-01
  8.00000000e-01  8.45000000e-02  8.45000000e-02  3.04752490e+03  4.57369510e+02
  1.03948690e+02  2.92101550e+01  9.28666300e+00  3.16392700e+00  7.86827240e+00
  1.88128850e+00  5.44249300e-01  7.86827240e+00  1.88128850e+00  5.44249300e-01
  1.68714400e-01  1.68714400e-01  8.00000000e-01  4.38000000e-02  4.38000000e-02
  1.87311370e+01  2.82539370e+00  6.40121700e-01  1.61277800e-01  1.87311370e+01
  2.82539370e+00  6.40121700e-01  1.61277800e-01  1.87311370e+01  2.82539370e+00
  6.40121700e-01  1.61277800e-01  1.87311370e+01  2.82539370e+00  6.40121700e-01
  1.61277800e-01  5.48467170e+03  8.25234950e+02  1.88046960e+02  5.29645000e+01
  1.68975700e+01  5.79963530e+00  1.55396160e+01  3.59993360e+00  1.01376180e+00
  1.55396160e+01  3.59993360e+00  1.01376180e+00  2.70005800e-01  2.70005800e-01
  8.00000000e-01  8.45000000e-02  8.45000000e-02  3.04752490e+03  4.57369510e+02
  1.03948690e+02  2.92101550e+01  9.28666300e+00  3.16392700e+00  7.86827240e+00
  1.88128850e+00  5.44249300e-01  7.86827240e+00  1.88128850e+00  5.44249300e-01
  1.68714400e-01  1.68714400e-01  8.00000000e-01  4.38000000e-02  4.38000000e-02
  1.87311370e+01  2.82539370e+00  6.40121700e-01  1.61277800e-01  1.87311370e+01
  2.82539370e+00  6.40121700e-01  1.61277800e-01  1.87311370e+01  2.82539370e+00
  6.40121700e-01  1.61277800e-01  1.13718200e+05  1.70744400e+04  3.88957600e+03
  1.09709600e+03  3.52062400e+02  1.20700200e+02  2.47113800e+03  5.89383800e+02
  1.91873800e+02  7.29533900e+01  3.00583900e+01  1.25292700e+01  2.47113800e+03
  5.89383800e+02  1.91873800e+02  7.29533900e+01  3.00583900e+01  1.25292700e+01
  1.09641100e+02  3.85894800e+01  1.63781800e+01  7.22183600e+00  3.26369700e+00
  1.46549900e+00  1.09641100e+02  3.85894800e+01  1.63781800e+01  7.22183600e+00
  3.26369700e+00  1.46549900e+00  2.10365100e+00  7.54705000e-01  3.00514000e-01
  2.10365100e+00  7.54705000e-01  3.00514000e-01  1.09071000e-01  1.09071000e-01
  6.22551400e+01  1.73128400e+01  5.60791500e+00  1.74648600e+00  4.36600000e-01
Contraction coefficients                   R   N=         345
  1.83470016e-03  1.40373012e-02  6.88426061e-02  2.32184421e-01  4.67941342e-01
  3.62312032e-01 -1.19332409e-01 -1.60854212e-01  1.14345648e+00  6.89990956e-02
  3.16423980e-01  7.44308252e-01  1.00000000e+00  1.00000000e+00  1.00000000e+00
  1.00000000e+00  1.00000000e+00  1.83470016e-03  1.40373012e-02  6.88426061e-02
  2.32184421e-01  4.67941342e-01  3.62312032e-01 -1.19332409e-01 -1.60854212e-01
  1.14345648e+00  6.89990956e-02  3.16423980e-01  7.44308252e-01  1.00000000e+00
  1.00000000e+00  1.00000000e+00  1.00000000e+00  1.00000000e+00  1.83470016e-03
  1.40373012e-02  6.88426061e-02  2.32184421e-01  4.67941342e-01  3.62312032e-01
 -1.19332409e-01 -1.60854212e-01  1.14345648e+00  6.89990956e-02  3.16423980e-01
  7.44308252e-01  1.00000000e+00  1.00000000e+00  1.00000000e+00  1.00000000e+00
  1.00000000e+00  3.34945995e-02  2.34726947e-01  8.13757318e-01  1.00000000e+00
  3.34945995e-02  2.34726947e-01  8.13757318e-01  1.00000000e+00  1.83479944e-03
  1.39949958e-02  6.85869792e-02  2.32240930e-01  4.69069858e-01  3.60454891e-01
 -1.14961023e-01 -1.69118034e-01  1.14585223e+00  6.75800232e-02  3.23907111e-01
  7.40895255e-01  1.00000000e+00  1.00000000e+00  1.00000000e+00  1.00000000e+00
  1.00000000e+00  1.83470016e-03  1.40373012e-02  6.88426061e-02  2.32184421e-01
  4.67941342e-01  3.62312032e-01 -1.19332409e-01 -1.60854212e-01  1.14345648e+00
  6.89990956e-02  3.16423980e-01  7.44308252e-01  1.00000000e+00  1.00000000e+00
  1.00000000e+00  1.00000000e+00  1.00000000e+00  1.83470016e-03  1.40373012e-02
  6.88426061e-02  2.32184421e-01  4.67941342e-01  3.62312032e-01 -1.19332409e-01
 -1.60854212e-01  1.14345648e+00  6.89990956e-02  3.16423980e-01  7.44308252e-01
  1.00000000e+00  1.00000000e+00  1.00000000e+00  1.00000000e+00  1.00000000e+00
  1.83470016e-03  1.40373012e-02  6.88426061e-02  2.32184421e-01  4.67941342e-01
  3.62312032e-01 -1.19332409e-01 -1.60854212e-01  1.14345648e+00  6.89990956e-02
  3.16423980e-01  7.44308252e-01  1.00000000e+00  1.00000000e+00  1.00000000e+00
  1.00000000e+00  1.00000000e+00  1.83470016e-03  1.40373012e-02  6.88426061e-02
  2.32184421e-01  4.67941342e-01  3.62312032e-01 -1.19332409e-01 -1.60854212e-01
  1.14345648e+00  6.89990956e-02  3.16423980e-01  7.44308252e-01  1.00000000e+00
  1.00000000e+00  1.00000000e+00  1.00000000e+00  1.00000000e+00  1.83470016e-03
  1.40373012e-02  6.88426061e-02  2.32184421e-01  4.67941342e-01  3.62312032e-01
 -1.19332409e-01 -1.60854212e-01  1.14345648e+00  6.89990956e-02  3.16423980e-01
  7.44308252e-01  1.00000000e+00  1.00000000e+00  1.00000000e+00  1.00000000e+00
  1.00000000e+00  3.34945995e-02  2.34726947e-01  8.13757318e-01  1.00000000e+00
  1.83470016e-03  1.40373012e-02  6.88426061e-02  2.32184421e-01  4.67941342e-01
  3.62312032e-01 -1.19332409e-01 -1.60854212e-01  1.14345648e+00  6.89990956e-02
  3.16423980e-01  7.44308252e-01  1.00000000e+00  1.00000000e+00  1.00000000e+00
  1.00000000e+00  1.00000000e+00  3.34945995e-02  2.34726947e-01  8.13757318e-01
  1.00000000e+00  3.34945995e-02  2.34726947e-01  8.13757318e-01  1.00000000e+00
  3.34945995e-02  2.34726947e-01  8.13757318e-01  1.00000000e+00  3.34945995e-02
  2.34726947e-01  8.13757318e-01  1.00000000e+00  3.34945995e-02  2.34726947e-01
  8.13757318e-01  1.00000000e+00  3.34945995e-02  2.34726947e-01  8.13757318e-01
  1.00000000e+00  1.83109981e-03  1.39500985e-02  6.84450927e-02  2.32714275e-01
  4.70192950e-01  3.58520862e-01 -1.10777504e-01 -1.48026305e-01  1.13076704e+00
  7.08742995e-02  3.39752798e-01  7.27158595e-01  1.00000000e+00  1.00000000e+00
  1.00000000e+00  1.00000000e+00  1.00000000e+00  1.83470016e-03  1.40373012e-02
  6.88426061e-02  2.32184421e-01  4.67941342e-01  3.62312032e-01 -1.19332409e-01
 -1.60854212e-01  1.14345648e+00  6.89990956e-02  3.16423980e-01  7.44308252e-01
  1.00000000e+00  1.00000000e+00  1.00000000e+00  1.00000000e+00  1.00000000e+00
  3.34945995e-02  2.34726947e-01  8.13757318e-01  1.00000000e+00  3.34945995e-02
  2.34726947e-01  8.13757318e-01  1.00000000e+00  3.34945995e-02  2.34726947e-01
  8.13757318e-01  1.00000000e+00  3.34945995e-02  2.34726947e-01  8.13757318e-01
  1.00000000e+00  1.83109981e-03  1.39500985e-02  6.84450927e-02  2.32714275e-01
  4.70192950e-01  3.58520862e-01 -1.10777504e-01 -1.48026305e-01  1.13076704e+00
  7.08742995e-02  3.39752798e-01  7.27158595e-01  1.00000000e+00  1.00000000e+00
  1.00000000e+00  1.00000000e+00  1.00000000e+00  1.83470016e-03  1.40373012e-02
  6.88426061e-02  2.32184421e-01  4.67941342e-01  3.62312032e-01 -1.19332409e-01
 -1.60854212e-01  1.14345648e+00  6.89990956e-02  3.16423980e-01  7.44308252e-01
  1.00000000e+00  1.00000000e+00  1.00000000e+00  1.00000000e+00  1.00000000e+00
  3.34945995e-02  2.34726947e-01  8.13757318e-01  1.00000000e+00  3.34945995e-02
  2.34726947e-01  8.13757318e-01  1.00000000e+00  3.34945995e-02  2.34726947e-01
  8.13757318e-01  1.00000000e+00  1.71769602e-03  1.31674402e-02  6.50455308e-02
  2.26950503e-01  4.76835706e-01  3.58367704e-01  2.24368693e-03  2.99485291e-02
  1.25600896e-01 -9.83278571e-04 -6.01314082e-01 -4.91398286e-01  3.79018184e-03
  2.99597888e-02  1.31822795e-01  3.43270786e-01  4.64234481e-01  2.07938691e-01
 -5.97568320e-03  5.54212219e-02  2.68120009e-01 -1.54360605e-01 -7.20630625e-01
 -3.31643711e-01 -6.90748264e-03 -3.04143184e-02  4.60272476e-02  3.65068881e-01
  4.94923174e-01  2.09039389e-01  3.02902925e-01 -2.15265918e-01 -9.63394181e-01
 -2.82671388e-02  3.50306486e-01  7.18244570e-01  1.00000000e+00  1.00000000e+00
  7.70422846e-02  3.70738374e-01  7.09762750e-01  1.00000000e+00  1.00000000e+00
Coordinates of each shell                  R   N=         468
 -8.91564912e-01 -1.78407889e+00  2.27524556e+00 -8.91564912e-01 -1.78407889e+00
  2.27524556e+00 -8.91564912e-01 -1.78407889e+00  2.27524556e+00 -8.91564912e-01
 -1.78407889e+00  2.27524556e+00 -8.91564912e-01 -1.78407889e+00  2.27524556e+00
 -8.91564912e-01 -1.78407889e+00  2.27524556e+00 -8.91564912e-01 -1.78407889e+00
  2.27524556e+00 -8.91564912e-01 -1.78407889e+00  2.27524556e+00 -2.17664722e+00
 -3.19447857e+00  4.40567851e+00 -2.17664722e+00 -3.19447857e+00  4.40567851e+00
 -2.17664722e+00 -3.19447857e+00  4.40567851e+00 -2.17664722e+00 -3.19447857e+00
  4.40567851e+00 -2.17664722e+00 -3.19447857e+00  4.40567851e+00 -2.17664722e+00
 -3.19447857e+00  4.40567851e+00 -2.17664722e+00 -3.19447857e+00  4.40567851e+00
 -2.17664722e+00 -3.19447857e+00  4.40567851e+00 -4.95674697e+00 -2.37927084e+00
  4.92757792e+00 -4.95674697e+00 -2.37927084e+00  4.92757792e+00 -4.95674697e+00
 -2.37927084e+00  4.92757792e+00 -4.95674697e+00 -2.37927084e+00  4.92757792e+00
 -4.95674697e+00 -2.37927084e+00  4.92757792e+00 -4.95674697e+00 -2.37927084e+00
  4.92757792e+00 -4.95674697e+00 -2.37927084e+00  4.92757792e+00 -4.95674697e+00
 -2.37927084e+00  4.92757792e+00 -1.08750162e+00 -2.98112487e+00  6.15321446e+00
 -1.08750162e+00 -2.98112487e+00  6.15321446e+00 -2.19416567e+00 -5.21951077e+00
  3.94340276e+00 -2.19416567e+00 -5.21951077e+00  3.94340276e+00 -6.22905398e+00
 -3.99538380e+00  6.79347857e+00 -6.22905398e+00 -3.99538380e+00  6.79347857e+00
 -6.22905398e+00 -3.99538380e+00  6.79347857e+00 -6.22905398e+00 -3.99538380e+00
  6.79347857e+00 -6.22905398e+00 -3.99538380e+00  6.79347857e+00 -6.22905398e+00
 -3.99538380e+00  6.79347857e+00 -6.22905398e+00 -3.99538380e+00  6.79347857e+00
 -6.22905398e+00 -3.99538380e+00  6.79347857e+00  8.34640128e-01  1.87713952e-01
  2.73140278e+00  8.34640128e-01  1.87713952e-01  2.73140278e+00  8.34640128e-01
  1.87713952e-01  2.73140278e+00  8.34640128e-01  1.87713952e-01  2.73140278e+00
  8.34640128e-01  1.87713952e-01  2.73140278e+00  8.34640128e-01  1.87713952e-01
  2.73140278e+00  8.34640128e-01  1.87713952e-01  2.73140278e+00  8.34640128e-01
  1.87713952e-01  2.73140278e+00  1.96906487e+00  1.45893763e+00  7.06880297e-01
  1.96906487e+00  1.45893763e+00  7.06880297e-01  1.96906487e+00  1.45893763e+00
  7.06880297e-01  1.96906487e+00  1.45893763e+00  7.06880297e-01  1.96906487e+00
  1.45893763e+00  7.06880297e-01  1.96906487e+00  1.45893763e+00  7.06880297e-01
  1.96906487e+00  1.45893763e+00  7.06880297e-01  1.96906487e+00  1.45893763e+00
  7.06880297e-01  1.38836163e+00  7.87071215e-01 -1.77237161e+00  1.38836163e+00
  7.87071215e-01 -1.77237161e+00  1.38836163e+00  7.87071215e-01 -1.77237161e+00
  1.38836163e+00  7.87071215e-01 -1.77237161e+00  1.38836163e+00  7.87071215e-01
 -1.77237161e+00  1.38836163e+00  7.87071215e-01 -1.77237161e+00  1.38836163e+00
  7.87071215e-01 -1.77237161e+00  1.38836163e+00  7.87071215e-01 -1.77237161e+00
 -3.18539856e-01 -1.16810924e+00 -2.29337531e+00 -3.18539856e-01 -1.16810924e+00
 -2.29337531e+00 -3.18539856e-01 -1.16810924e+00 -2.29337531e+00 -3.18539856e-01
 -1.16810924e+00 -2.29337531e+00 -3.18539856e-01 -1.16810924e+00 -2.29337531e+00
 -3.18539856e-01 -1.16810924e+00 -2.29337531e+00 -3.18539856e-01 -1.16810924e+00
 -2.29337531e+00 -3.18539856e-01 -1.16810924e+00 -2.29337531e+00 -1.42221901e+00
 -2.42160081e+00 -2.37463284e-01 -1.42221901e+00 -2.42160081e+00 -2.37463284e-01
 -1.42221901e+00 -2.42160081e+00 -2.37463284e-01 -1.42221901e+00 -2.42160081e+00
 -2.37463284e-01 -1.42221901e+00 -2.42160081e+00 -2.37463284e-01 -1.42221901e+00
 -2.42160081e+00 -2.37463284e-01 -1.42221901e+00 -2.42160081e+00 -2.37463284e-01
 -1.42221901e+00 -2.42160081e+00 -2.37463284e-01 -2.73357413e+00 -3.96091995e+00
 -5.81344546e-01 -2.73357413e+00 -3.96091995e+00 -5.81344546e-01 -5.16896683e+00
  3.73425956e-01  5.78612098e+00 -5.16896683e+00  3.73425956e-01  5.78612098e+00
 -5.16896683e+00  3.73425956e-01  5.78612098e+00 -5.16896683e+00  3.73425956e-01
  5.78612098e+00 -5.16896683e+00  3.73425956e-01  5.78612098e+00 -5.16896683e+00
  3.73425956e-01  5.78612098e+00 -5.16896683e+00  3.73425956e-01  5.78612098e+00
 -5.16896683e+00  3.73425956e-01  5.78612098e+00 -6.01897447e+00 -2.58848059e+00
  3.15458635e+00 -6.01897447e+00 -2.58848059e+00  3.15458635e+00 -4.15242035e+00
  6.67023038e-01  7.57131139e+00 -4.15242035e+00  6.67023038e-01  7.57131139e+00
 -7.15541624e+00  8.72120734e-01  6.07877934e+00 -7.15541624e+00  8.72120734e-01
  6.07877934e+00 -4.35742103e+00  1.66163302e+00  4.38581594e+00 -4.35742103e+00
  1.66163302e+00  4.38581594e+00 -5.38288309e+00 -3.82894252e+00  8.51777752e+00
 -5.38288309e+00 -3.82894252e+00  8.51777752e+00 -6.11963566e+00 -5.85252948e+00
  6.29477358e+00 -6.11963566e+00 -5.85252948e+00  6.29477358e+00 -7.81887206e-01
 -1.72627860e+00 -4.76684883e+00 -7.81887206e-01 -1.72627860e+00 -4.76684883e+00
 -7.81887206e-01 -1.72627860e+00 -4.76684883e+00 -7.81887206e-01 -1.72627860e+00
 -4.76684883e+00 -7.81887206e-01 -1.72627860e+00 -4.76684883e+00 -7.81887206e-01
 -1.72627860e+00 -4.76684883e+00 -7.81887206e-01 -1.72627860e+00 -4.76684883e+00
 -7.81887206e-01 -1.72627860e+00 -4.76684883e+00 -2.50716098e+00 -3.70117182e+00
 -5.34013016e+00 -2.50716098e+00 -3.70117182e+00 -5.34013016e+00 -2.50716098e+00
 -3.70117182e+00 -5.34013016e+00 -2.50716098e+00 -3.70117182e+00 -5.34013016e+00
 -2.50716098e+00 -3.70117182e+00 -5.34013016e+00 -2.50716098e+00 -3.70117182e+00
 -5.34013016e+00 -2.50716098e+00 -3.70117182e+00 -5.34013016e+00 -2.50716098e+00
 -3.70117182e+00 -5.34013016e+00 -2.57659612e+00 -3.79353591e+00 -7.39916585e+00
 -2.57659612e+00 -3.79353591e+00 -7.39916585e+00 -4.40267479e+00 -3.28811403e+00
 -4.60369466e+00 -4.40267479e+00 -3.28811403e+00 -4.60369466e+00 -1.85085291e+00
 -5.52152139e+00 -4.59032155e+00 -1.85085291e+00 -5.52152139e+00 -4.59032155e+00
  3.30562665e+00  2.97472205e+00  1.02341862e+00  3.30562665e+00  2.97472205e+00
  1.02341862e+00  1.32079687e+00  7.55511686e-01  5.21623555e+00  1.32079687e+00
  7.55511686e-01  5.21623555e+00  1.32079687e+00  7.55511686e-01  5.21623555e+00
  1.32079687e+00  7.55511686e-01  5.21623555e+00  1.32079687e+00  7.55511686e-01
  5.21623555e+00  1.32079687e+00  7.55511686e-01  5.21623555e+00  1.32079687e+00
  7.55511686e-01  5.21623555e+00  1.32079687e+00  7.55511686e-01  5.21623555e+00
  3.09361098e+00  2.69150665e+00  5.77476258e+00  3.09361098e+00  2.69150665e+00
  5.77476258e+00  3.09361098e+00  2.69150665e+00  5.77476258e+00  3.09361098e+00
  2.69150665e+00  5.77476258e+00  3.09361098e+00  2.69150665e+00  5.77476258e+00
  3.09361098e+00  2.69150665e+00  5.77476258e+00  3.09361098e+00  2.69150665e+00
  5.77476258e+00  3.09361098e+00  2.69150665e+00  5.77476258e+00  4.97302909e+00
  2.23737571e+00  5.02123992e+00  4.97302909e+00  2.23737571e+00  5.02123992e+00
  3.18651921e+00  2.78821090e+00  7.83312687e+00  3.18651921e+00  2.78821090e+00
  7.83312687e+00  2.47301536e+00  4.52565155e+00  5.02849618e+00  2.47301536e+00
  4.52565155e+00  5.02849618e+00  2.97574463e+00  2.56911549e+00 -4.48685482e+00
  2.97574463e+00  2.56911549e+00 -4.48685482e+00  2.97574463e+00  2.56911549e+00
 -4.48685482e+00  2.97574463e+00  2.56911549e+00 -4.48685482e+00  2.97574463e+00
  2.56911549e+00 -4.48685482e+00  2.97574463e+00  2.56911549e+00 -4.48685482e+00
  2.97574463e+00  2.56911549e+00 -4.48685482e+00  2.97574463e+00  2.56911549e+00
 -4.48685482e+00  2.97574463e+00  2.56911549e+00 -4.48685482e+00  2.97574463e+00
  2.56911549e+00 -4.48685482e+00  2.97574463e+00  2.56911549e+00 -4.48685482e+00
  2.97574463e+00  2.56911549e+00 -4.48685482e+00
Total Energy                               R     -3.207746448153967e+03
Alpha Orbital Energies                     R   N=         333
 -4.82873698e+02 -6.25306074e+01 -5.63521931e+01 -5.63484006e+01 -5.63482507e+01
 -1.91925932e+01 -1.91921016e+01 -1.43229555e+01 -1.02625232e+01 -1.02575115e+01
 -1.02505373e+01 -1.02500714e+01 -1.02472614e+01 -1.02213342e+01 -1.02078868e+01
 -1.02071038e+01 -1.02037118e+01 -1.01913994e+01 -1.01731675e+01 -8.71036657e+00
 -6.54081856e+00 -6.52768687e+00 -6.52719702e+00 -2.60762360e+00 -2.60375231e+00
 -2.60341426e+00 -2.59300990e+00 -2.59300420e+00 -1.07754192e+00 -1.07475152e+00