Generated by Psi4
     FORCE                           RHF                       TESTBAS
Number of atoms                            I               28
Charge                                     I                0
Multiplicity                               I                1
Number of electrons                        I              114
Number of alpha electrons                  I               57
Number of beta electrons                   I               57
Number of basis functions                  I              298
Number of independent functions            I              298
Atomic numbers                             I   N=          28
           6           6           6           1           1           7
           6           6           6           6           6           1
           1           1           8           6           1           1
           1           1           8           6           1           1
           1          17           1           1
Nuclear charges                            R   N=          28
  6.00000000e+00  6.00000000e+00  6.00000000e+00  1.00000000e+00  1.00000000e+00
  7.00000000e+00  6.00000000e+00  6.00000000e+00  6.00000000e+00  6.00000000e+00
  6.00000000e+00  1.00000000e+00  1.00000000e+00  1.00000000e+00  8.00000000e+00
  6.00000000e+00  1.00000000e+00  1.00000000e+00  1.00000000e+00  1.00000000e+00
  8.00000000e+00  6.00000000e+00  1.00000000e+00  1.00000000e+00  1.00000000e+00
  1.70000000e+01  1.00000000e+00  1.00000000e+00
Current cartesian coordinates              R   N=          84
 -6.54350050e-01 -1.50906991e+00  1.42855019e+00 -1.95375394e+00 -3.15104704e+00
  3.37111139e+00 -4.42849138e+00 -1.97716497e+00  4.40826874e+00 -6.74829933e-01
 -3.49937936e+00  4.96499689e+00 -2.39417694e+00 -4.99521137e+00  2.52544372e+00
 -5.74583064e+00 -3.46600293e+00  6.33198845e+00  8.62378670e-01  5.47015974e-01
  2.17049473e+00  2.02085862e+00  2.07447422e+00  3.51494759e-01  1.66810498e+00
  1.57543179e+00 -2.21231768e+00  1.65703942e-01 -4.52265960e-01 -3.01539091e+00
 -9.69217328e-01 -1.96221698e+00 -1.15707705e+00 -2.12971818e+00 -3.55638256e+00
 -1.72009735e+00 -4.63405642e+00 -3.72578395e+00  7.88179358e+00 -6.20359496e+00
 -5.21393500e+00  5.66732125e+00 -7.83041793e-02 -8.18510571e-01 -5.55492965e+00
 -1.60074205e+00 -2.85330937e+00 -6.41933000e+00 -1.53139184e+00 -2.75996772e+00
 -8.47829762e+00 -3.56614268e+00 -2.65039888e+00 -5.78498884e+00 -8.51103766e-01
 -4.68201613e+00 -5.78652140e+00  3.20186618e+00  3.65981465e+00  8.79845605e-01
  1.11853221e+00  9.18054853e-01  4.72633571e+00  2.67125847e+00  2.93297625e+00
  5.58553485e+00  4.63149802e+00  2.70144057e+00  4.94560115e+00  2.60875258e+00
  2.84999229e+00  7.64544869e+00  1.94663329e+00  4.77007129e+00  4.94869428e+00
  3.14409752e+00  3.52527044e+00 -4.44682832e+00 -5.74550820e+00 -1.66063023e+00
  2.83847265e+00 -4.01232992e+00 -1.19916436e-01  5.22120405e+00
Integer atomic weights                     I   N=          28
          12          12          12           1           1          14
          12          12          12          12          12           1
           1           1          15          12           1           1
           1           1          15          12           1           1
           1          34           1           1
Real atomic weights                        R   N=          28
  1.20000000e+01  1.20000000e+01  1.20000000e+01  1.00782503e+00  1.00782503e+00
  1.40030740e+01  1.20000000e+01  1.20000000e+01  1.20000000e+01  1.20000000e+01
  1.20000000e+01  1.00782503e+00  1.00782503e+00  1.00782503e+00  1.59949146e+01
  1.20000000e+01  1.00782503e+00  1.00782503e+00  1.00782503e+00  1.00782503e+00
  1.59949146e+01  1.20000000e+01  1.00782503e+00  1.00782503e+00  1.00782503e+00
  3.49688527e+01  1.00782503e+00  1.00782503e+00
Number of primitive shells                 I              306
Number of contracted shells                I              142
Pure/Cartesian d shells                    I                1
Pure/Cartesian f shells                    I                1
Highest angular momentum                   I                2
Largest degree of contraction              I                6
Shell types                                I   N=         142
           0           0           1           0           1           2
           0           1           0           0           1           0
           1           2           0           1           0           0
           1           0           1           2           0           1
           0           0           0           0           0           0
           1           0           1           2           0           1
           0           0           1           0           1           2
           0           1           0           0           1           0
           1           2           0           1           0           0
           1           0           1           2           0           1
           0           0           1           0           1           2
           0           1           0           0           1           0
           1           2           0           1           0           0
           0           0           0           0           0           0
           1           0           1           2           0           1
           0           0           1           0           1           2
           0           1           0           0           0           0
           0           0           0           0           0           0
           1           0           1           2           0           1
           0           0           1           0           1           2
           0           1           0           0           0           0
           0           0           0           0           1           0
           1           0           1           2           0           1
           0           0           0           0
Number of primitives per shell             I   N=         142
           6           3           3           1           1           1
           1           1           6           3           3           1
           1           1           1           1           6           3
           3           1           1           1           1           1
           3           1           3           1           6           3
           3           1           1           1           1           1
           6           3           3           1           1           1
           1           1           6           3           3           1
           1           1           1           1           6           3
           3           1           1           1           1           1
           6           3           3           1           1           1
           1           1           6           3           3           1
           1           1           1           1           3           1
           3           1           3           1           6           3
           3           1           1           1           1           1
           6           3           3           1           1           1
           1           1           3           1           3           1
           3           1           3           1           6           3
           3           1           1           1           1           1
           6           3           3           1           1           1
           1           1           3           1           3           1
           3           1           6           6           6           3
           3           1           1           1           1           1
           3           1           3           1
Shell to atom map                          I   N=         142
           1           1           1           1           1           1
           1           1           2           2           2           2
           2           2           2           2           3           3
           3           3           3           3           3           3
           4           4           5           5           6           6
           6           6           6           6           6           6
           7           7           7           7           7           7
           7           7           8           8           8           8
           8           8           8           8           9           9
           9           9           9           9           9           9
          10          10          10          10          10          10
          10          10          11          11          11          11
          11          11          11          11          12          12
          13          13          14          14          15          15
          15          15          15          15          15          15
          16          16          16          16          16          16
          16          16          17          17          18          18
          19          19          20          20          21          21
          21          21          21          21          21          21
          22          22          22          22          22          22
          22          22          23          23          24          24
          25          25          26          26          26          26
          26          26          26          26          26          26
          27          27          28          28
Primitive exponents                        R   N=         306
  3.04752490e+03  4.57369510e+02  1.03948690e+02  2.92101550e+01  9.28666300e+00
  3.16392700e+00  7.86827240e+00  1.88128850e+00  5.44249300e-01  7.86827240e+00
  1.88128850e+00  5.44249300e-01  1.68714400e-01  1.68714400e-01  8.00000000e-01
  4.38000000e-02  4.38000000e-02  3.04752490e+03  4.57369510e+02  1.03948690e+02
  2.92101550e+01  9.28666300e+00  3.16392700e+00  7.86827240e+00  1.88128850e+00
  5.44249300e-01  7.86827240e+00  1.88128850e+00  5.44249300e-01  1.68714400e-01
  1.68714400e-01  8.00000000e-01  4.38000000e-02  4.38000000e-02  3.04752490e+03
  4.57369510e+02  1.03948690e+02  2.92101550e+01  9.28666300e+00  3.16392700e+00
  7.86827240e+00  1.88128850e+00  5.44249300e-01  7.86827240e+00  1.88128850e+00
  5.44249300e-01  1.68714400e-01  1.68714400e-01  8.00000000e-01  4.38000000e-02
  4.38000000e-02  1.87311370e+01  2.82539370e+00  6.40121700e-01  1.61277800e-01
  1.87311370e+01  2.82539370e+00  6.40121700e-01  1.61277800e-01  4.17351100e+03
  6.27457900e+02  1.42902100e+02  4.02343300e+01  1.28202100e+01  4.39043700e+00
  1.16263580e+01  2.71628000e+00  7.72218000e-01  1.16263580e+01  2.71628000e+00
  7.72218000e-01  2.12031300e-01  2.12031300e-01  8.00000000e-01  6.39000000e-02
  6.39000000e-02  3.04752490e+03  4.57369510e+02  1.03948690e+02  2.92101550e+01
  9.28666300e+00  3.16392700e+00  7.86827240e+00  1.88128850e+00  5.44249300e-01
  7.86827240e+00  1.88128850e+00  5.44249300e-01  1.68714400e-01  1.68714400e-01
  8.00000000e-01  4.38000000e-02  4.38000000e-02  3.04752490e+03  4.57369510e+02
  1.03948690e+02  2.92101550e+01  9.28666300e+00  3.16392700e+00  7.86827240e+00
  1.88128850e+00  5.44249300e-01  7.86827240e+00  1.88128850e+00  5.44249300e-01
  1.68714400e-01  1.68714400e-01  8.00000000e-01  4.38000000e-02  4.38000000e-02
  3.04752490e+03  4.57369510e+02  1.03948690e+02  2.92101550e+01  9.28666300e+00
  3.16392700e+00  7.86827240e+00  1.88128850e+00  5.44249300e-01  7.86827240e+00
  1.88128850e+00  5.44249300e-01  1.68714400e-01  1.68714400e-01  8.00000000e-01
  4.38000000e-02  4.38000000e-02  3.04752490e+03  4.57369510e+02  1.03948690e+02
  2.92101550e+01  9.28666300e+00  3.16392700e+00  7.86827240e+00  1.88128850e+00
  5.44249300e-01  7.86827240e+00  1.88128850e+00  5.44249300e-01  1.68714400e-01
  1.68714400e-01  8.00000000e-01  4.38000000e-02  4.38000000e-02  3.04752490e+03
  4.57369510e+02  1.03948690e+02  2.92101550e+01  9.28666300e+00  3.16392700e+00
  7.86827240e+00  1.88128850e+00  5.44249300e-01  7.86827240e+00  1.88128850e+00
  5.44249300e-01  1.68714400e-01  1.68714400e-01  8.00000000e-01  4.38000000e-02
  4.38000000e-02  1.87311370e+01  2.82539370e+00  6.40121700e-01  1.61277800e-01
  1.87311370e+01  2.82539370e+00  6.40121700e-01  1.61277800e-01  1.87311370e+01
  2.82539370e+00  6.40121700e-01  1.61277800e-01  5.48467170e+03  8.25234950e+02
  1.88046960e+02  5.29645000e+01  1.68975700e+01  5.79963530e+00  1.55396160e+01
  3.59993360e+00  1.01376180e+00  1.55396160e+01  3.59993360e+00  1.01376180e+00
  2.70005800e-01  2.70005800e-01  8.00000000e-01  8.45000000e-02  8.45000000e-02
  3.04752490e+03  4.57369510e+02  1.03948690e+02  2.92101550e+01  9.28666300e+00
  3.16392700e+00  7.86827240e+00  1.88128850e+00  5.44249300e-01  7.86827240e+00
  1.88128850e+00  5.44249300e-01  1.68714400e-01  1.68714400e-01  8.00000000e-01
  4.38000000e-02  4.38000000e-02  1.87311370e+01  2.82539370e+00  6.40121700e-01
  1.61277800e-01  1.87311370e+01  2.82539370e+00  6.40121700e-01  1.61277800e-01
  1.87311370e+01  2.82539370e+00  6.40121700e-01  1.61277800e-01  1.87311370e+01
  2.82539370e+00  6.40121700e-01  1.61277800e-01  5.48467170e+03  8.25234950e+02
  1.88046960e+02  5.29645000e+01  1.68975700e+01  5.79963530e+00  1.55396160e+01
  3.59993360e+00  1.01376180e+00  1.55396160e+01  3.59993360e+00  1.01376180e+00
  2.70005800e-01  2.70005800e-01  8.00000000e-01  8.45000000e-02  8.45000000e-02
  3.04752490e+03  4.57369510e+02  1.03948690e+02  2.92101550e+01  9.28666300e+00
  3.16392700e+00  7.86827240e+00  1.88128850e+00  5.44249300e-01  7.86827240e+00
  1.88128850e+00  5.44249300e-01  1.68714400e-01  1.68714400e-01  8.00000000e-01
  4.38000000e-02  4.38000000e-02  1.87311370e+01  2.82539370e+00  6.40121700e-01
  1.61277800e-01  1.87311370e+01  2.82539370e+00  6.40121700e-01  1.61277800e-01
  1.87311370e+01  2.82539370e+00  6.40121700e-01  1.61277800e-01  2.51801000e+04
  3.78035000e+03  8.60474000e+02  2.42145000e+02  7.73349000e+01  2.62470000e+01
  4.91765000e+02  1.16984000e+02  3.74153000e+01  1.37834000e+01  5.45215000e+00
  2.22588000e+00  4.91765000e+02  1.16984000e+02  3.74153000e+01  1.37834000e+01
  5.45215000e+00  2.22588000e+00  3.18649000e+00  1.14427000e+00  4.20377000e-01
  3.18649000e+00  1.14427000e+00  4.20377000e-01  1.42657000e-01  1.42657000e-01
  7.50000000e-01  4.83000000e-02  4.83000000e-02  1.87311370e+01  2.82539370e+00
  6.40121700e-01  1.61277800e-01  1.87311370e+01  2.82539370e+00  6.40121700e-01
  1.61277800e-01
Contraction coefficients                   R   N=         306
  1.83470016e-03  1.40373012e-02  6.88426061e-02  2.32184421e-01  4.67941342e-01
  3.62312032e-01 -1.19332409e-01 -1.60854212e-01  1.14345648e+00  6.89990956e-02
  3.16423980e-01  7.44308252e-01  1.00000000e+00  1.00000000e+00  1.00000000e+00
  1.00000000e+00  1.00000000e+00  1.83470016e-03  1.40373012e-02  6.88426061e-02
  2.32184421e-01  4.67941342e-01  3.62312032e-01 -1.19332409e-01 -1.60854212e-01
  1.14345648e+00  6.89990956e-02  3.16423980e-01  7.44308252e-01  1.00000000e+00
  1.00000000e+00  1.00000000e+00  1.00000000e+00  1.00000000e+00  1.83470016e-03
  1.40373012e-02  6.88426061e-02  2.32184421e-01  4.67941342e-01  3.62312032e-01
 -1.19332409e-01 -1.60854212e-01  1.14345648e+00  6.89990956e-02  3.16423980e-01
  7.44308252e-01  1.00000000e+00  1.00000000e+00  1.00000000e+00  1.00000000e+00
  1.00000000e+00  3.34945995e-02  2.34726947e-01  8.13757318e-01  1.00000000e+00
  3.34945995e-02  2.34726947e-01  8.13757318e-01  1.00000000e+00  1.83479944e-03
  1.39949958e-02  6.85869792e-02  2.32240930e-01  4.69069858e-01  3.60454891e-01
 -1.14961023e-01 -1.69118034e-01  1.14585223e+00  6.75800232e-02  3.23907111e-01
  7.40895255e-01  1.00000000e+00  1.00000000e+00  1.00000000e+00  1.00000000e+00
  1.00000000e+00  1.83470016e-03  1.40373012e-02  6.88426061e-02  2.32184421e-01
  4.67941342e-01  3.62312032e-01 -1.19332409e-01 -1.60854212e-01  1.14345648e+00
  6.89990956e-02  3.16423980e-01  7.44308252e-01  1.00000000e+00  1.00000000e+00
  1.00000000e+00  1.00000000e+00  1.00000000e+00  1.83470016e-03  1.40373012e-02
  6.88426061e-02  2.32184421e-01  4.67941342e-01  3.62312032e-01 -1.19332409e-01
 -1.60854212e-01  1.14345648e+00  6.89990956e-02  3.16423980e-01  7.44308252e-01
  1.00000000e+00  1.00000000e+00  1.00000000e+00  1.00000000e+00  1.00000000e+00
  1.83470016e-03  1.40373012e-02  6.88426061e-02  2.32184421e-01  4.67941342e-01
  3.62312032e-01 -1.19332409e-01 -1.60854212e-01  1.14345648e+00  6.89990956e-02
  3.16423980e-01  7.44308252e-01  1.00000000e+00  1.00000000e+00  1.00000000e+00
  1.00000000e+00  1.00000000e+00  1.83470016e-03  1.40373012e-02  6.88426061e-02
  2.32184421e-01  4.67941342e-01  3.62312032e-01 -1.19332409e-01 -1.60854212e-01
  1.14345648e+00  6.89990956e-02  3.16423980e-01  7.44308252e-01  1.00000000e+00
  1.00000000e+00  1.00000000e+00  1.00000000e+00  1.00000000e+00  1.83470016e-03
  1.40373012e-02  6.88426061e-02  2.32184421e-01  4.67941342e-01  3.62312032e-01
 -1.19332409e-01 -1.60854212e-01  1.14345648e+00  6.89990956e-02  3.16423980e-01
  7.44308252e-01  1.00000000e+00  1.00000000e+00  1.00000000e+00  1.00000000e+00
  1.00000000e+00  3.34945995e-02  2.34726947e-01  8.13757318e-01  1.00000000e+00
  3.34945995e-02  2.34726947e-01  8.13757318e-01  1.00000000e+00  3.34945995e-02
  2.34726947e-01  8.13757318e-01  1.00000000e+00  1.83109981e-03  1.39500985e-02
  6.84450927e-02  2.32714275e-01  4.70192950e-01  3.58520862e-01 -1.10777504e-01
 -1.48026305e-01  1.13076704e+00  7.08742995e-02  3.39752798e-01  7.27158595e-01
  1.00000000e+00  1.00000000e+00  1.00000000e+00  1.00000000e+00  1.00000000e+00
  1.83470016e-03  1.40373012e-02  6.88426061e-02  2.32184421e-01  4.67941342e-01
  3.62312032e-01 -1.19332409e-01 -1.60854212e-01  1.14345648e+00  6.89990956e-02
  3.16423980e-01  7.44308252e-01  1.00000000e+00  1.00000000e+00  1.00000000e+00
  1.00000000e+00  1.00000000e+00  3.34945995e-02  2.34726947e-01  8.13757318e-01
  1.00000000e+00  3.34945995e-02  2.34726947e-01  8.13757318e-01  1.00000000e+00
  3.34945995e-02  2.34726947e-01  8.13757318e-01  1.00000000e+00  3.34945995e-02
  2.34726947e-01  8.13757318e-01  1.00000000e+00  1.83109981e-03  1.39500985e-02
  6.84450927e-02  2.32714275e-01  4.70192950e-01  3.58520862e-01 -1.10777504e-01
 -1.48026305e-01  1.13076704e+00  7.08742995e-02  3.39752798e-01  7.27158595e-01
  1.00000000e+00  1.00000000e+00  1.00000000e+00  1.00000000e+00  1.00000000e+00
  1.83470016e-03  1.40373012e-02  6.88426061e-02  2.32184421e-01  4.67941342e-01
  3.62312032e-01 -1.19332409e-01 -1.60854212e-01  1.14345648e+00  6.89990956e-02
  3.16423980e-01  7.44308252e-01  1.00000000e+00  1.00000000e+00  1.00000000e+00
  1.00000000e+00  1.00000000e+00  3.34945995e-02  2.34726947e-01  8.13757318e-01
  1.00000000e+00  3.34945995e-02  2.34726947e-01  8.13757318e-01  1.00000000e+00
  3.34945995e-02  2.34726947e-01  8.13757318e-01  1.00000000e+00  1.83300031e-03
  1.40340024e-02  6.90970118e-02  2.37452040e-01  4.83034082e-01  3.39856058e-01
 -2.29740199e-03 -3.07140266e-02 -1.12528097e-01  4.50160390e-02  5.89353510e-01
  4.65206403e-01  3.98940055e-03  3.03180042e-02  1.29880018e-01  3.27951045e-01
  4.53527062e-01  2.52154035e-01 -2.51831288e-01  6.15893150e-02  1.06018542e+00
 -1.42990127e-02  3.23572288e-01  7.43507661e-01  1.00000000e+00  1.00000000e+00
  1.00000000e+00  1.00000000e+00  1.00000000e+00  3.34945995e-02  2.34726947e-01
  8.13757318e-01  1.00000000e+00  3.34945995e-02  2.34726947e-01  8.13757318e-01
  1.00000000e+00
Coordinates of each shell                  R   N=         426
 -6.54350050e-01 -1.50906991e+00  1.42855019e+00 -6.54350050e-01 -1.50906991e+00
  1.42855019e+00 -6.54350050e-01 -1.50906991e+00  1.42855019e+00 -6.54350050e-01
 -1.50906991e+00  1.42855019e+00 -6.54350050e-01 -1.50906991e+00  1.42855019e+00
 -6.54350050e-01 -1.50906991e+00  1.42855019e+00 -6.54350050e-01 -1.50906991e+00
  1.42855019e+00 -6.54350050e-01 -1.50906991e+00  1.42855019e+00 -1.95375394e+00
 -3.15104704e+00  3.37111139e+00 -1.95375394e+00 -3.15104704e+00  3.37111139e+00
 -1.95375394e+00 -3.15104704e+00  3.37111139e+00 -1.95375394e+00 -3.15104704e+00
  3.37111139e+00 -1.95375394e+00 -3.15104704e+00  3.37111139e+00 -1.95375394e+00
 -3.15104704e+00  3.37111139e+00 -1.95375394e+00 -3.15104704e+00  3.37111139e+00
 -1.95375394e+00 -3.15104704e+00  3.37111139e+00 -4.42849138e+00 -1.97716497e+00
  4.40826874e+00 -4.42849138e+00 -1.97716497e+00  4.40826874e+00 -4.42849138e+00
 -1.97716497e+00  4.40826874e+00 -4.42849138e+00 -1.97716497e+00  4.40826874e+00
 -4.42849138e+00 -1.97716497e+00  4.40826874e+00 -4.42849138e+00 -1.97716497e+00
  4.40826874e+00 -4.42849138e+00 -1.97716497e+00  4.40826874e+00 -4.42849138e+00
 -1.97716497e+00  4.40826874e+00 -6.74829933e-01 -3.49937936e+00  4.96499689e+00
 -6.74829933e-01 -3.49937936e+00  4.96499689e+00 -2.39417694e+00 -4.99521137e+00
  2.52544372e+00 -2.39417694e+00 -4.99521137e+00  2.52544372e+00 -5.74583064e+00
 -3.46600293e+00  6.33198845e+00 -5.74583064e+00 -3.46600293e+00  6.33198845e+00
 -5.74583064e+00 -3.46600293e+00  6.33198845e+00 -5.74583064e+00 -3.46600293e+00
  6.33198845e+00 -5.74583064e+00 -3.46600293e+00  6.33198845e+00 -5.74583064e+00
 -3.46600293e+00  6.33198845e+00 -5.74583064e+00 -3.46600293e+00  6.33198845e+00
 -5.74583064e+00 -3.46600293e+00  6.33198845e+00  8.62378670e-01  5.47015974e-01
  2.17049473e+00  8.62378670e-01  5.47015974e-01  2.17049473e+00  8.62378670e-01
  5.47015974e-01  2.17049473e+00  8.62378670e-01  5.47015974e-01  2.17049473e+00
  8.62378670e-01  5.47015974e-01  2.17049473e+00  8.62378670e-01  5.47015974e-01
  2.17049473e+00  8.62378670e-01  5.47015974e-01  2.17049473e+00  8.62378670e-01
  5.47015974e-01  2.17049473e+00  2.02085862e+00  2.07447422e+00  3.51494759e-01
  2.02085862e+00  2.07447422e+00  3.51494759e-01  2.02085862e+00  2.07447422e+00
  3.51494759e-01  2.02085862e+00  2.07447422e+00  3.51494759e-01  2.02085862e+00
  2.07447422e+00  3.51494759e-01  2.02085862e+00  2.07447422e+00  3.51494759e-01
  2.02085862e+00  2.07447422e+00  3.51494759e-01  2.02085862e+00  2.07447422e+00
  3.51494759e-01  1.66810498e+00  1.57543179e+00 -2.21231768e+00  1.66810498e+00
  1.57543179e+00 -2.21231768e+00  1.66810498e+00  1.57543179e+00 -2.21231768e+00
  1.66810498e+00  1.57543179e+00 -2.21231768e+00  1.66810498e+00  1.57543179e+00
 -2.21231768e+00  1.66810498e+00  1.57543179e+00 -2.21231768e+00  1.66810498e+00
  1.57543179e+00 -2.21231768e+00  1.66810498e+00  1.57543179e+00 -2.21231768e+00
  1.65703942e-01 -4.52265960e-01 -3.01539091e+00  1.65703942e-01 -4.52265960e-01
 -3.01539091e+00  1.65703942e-01 -4.52265960e-01 -3.01539091e+00  1.65703942e-01
 -4.52265960e-01 -3.01539091e+00  1.65703942e-01 -4.52265960e-01 -3.01539091e+00
  1.65703942e-01 -4.52265960e-01 -3.01539091e+00  1.65703942e-01 -4.52265960e-01
 -3.01539091e+00  1.65703942e-01 -4.52265960e-01 -3.01539091e+00 -9.69217328e-01
 -1.96221698e+00 -1.15707705e+00 -9.69217328e-01 -1.96221698e+00 -1.15707705e+00
 -9.69217328e-01 -1.96221698e+00 -1.15707705e+00 -9.69217328e-01 -1.96221698e+00
 -1.15707705e+00 -9.69217328e-01 -1.96221698e+00 -1.15707705e+00 -9.69217328e-01
 -1.96221698e+00 -1.15707705e+00 -9.69217328e-01 -1.96221698e+00 -1.15707705e+00
 -9.69217328e-01 -1.96221698e+00 -1.15707705e+00 -2.12971818e+00 -3.55638256e+00
 -1.72009735e+00 -2.12971818e+00 -3.55638256e+00 -1.72009735e+00 -4.63405642e+00
 -3.72578395e+00  7.88179358e+00 -4.63405642e+00 -3.72578395e+00  7.88179358e+00
 -6.20359496e+00 -5.21393500e+00  5.66732125e+00 -6.20359496e+00 -5.21393500e+00
  5.66732125e+00 -7.83041793e-02 -8.18510571e-01 -5.55492965e+00 -7.83041793e-02
 -8.18510571e-01 -5.55492965e+00 -7.83041793e-02 -8.18510571e-01 -5.55492965e+00
 -7.83041793e-02 -8.18510571e-01 -5.55492965e+00 -7.83041793e-02 -8.18510571e-01
 -5.55492965e+00 -7.83041793e-02 -8.18510571e-01 -5.55492965e+00 -7.83041793e-02
 -8.18510571e-01 -5.55492965e+00 -7.83041793e-02 -8.18510571e-01 -5.55492965e+00
 -1.60074205e+00 -2.85330937e+00 -6.41933000e+00 -1.60074205e+00 -2.85330937e+00
 -6.41933000e+00 -1.60074205e+00 -2.85330937e+00 -6.41933000e+00 -1.60074205e+00
 -2.85330937e+00 -6.41933000e+00 -1.60074205e+00 -2.85330937e+00 -6.41933000e+00
 -1.60074205e+00 -2.85330937e+00 -6.41933000e+00 -1.60074205e+00 -2.85330937e+00
 -6.41933000e+00 -1.60074205e+00 -2.85330937e+00 -6.41933000e+00 -1.53139184e+00
 -2.75996772e+00 -8.47829762e+00 -1.53139184e+00 -2.75996772e+00 -8.47829762e+00
 -3.56614268e+00 -2.65039888e+00 -5.78498884e+00 -3.56614268e+00 -2.65039888e+00
 -5.78498884e+00 -8.51103766e-01 -4.68201613e+00 -5.78652140e+00 -8.51103766e-01
 -4.68201613e+00 -5.78652140e+00  3.20186618e+00  3.65981465e+00  8.79845605e-01
  3.20186618e+00  3.65981465e+00  8.79845605e-01  1.11853221e+00  9.18054853e-01
  4.72633571e+00  1.11853221e+00  9.18054853e-01  4.72633571e+00  1.11853221e+00
  9.18054853e-01  4.72633571e+00  1.11853221e+00  9.18054853e-01  4.72633571e+00
  1.11853221e+00  9.18054853e-01  4.72633571e+00  1.11853221e+00  9.18054853e-01
  4.72633571e+00  1.11853221e+00  9.18054853e-01  4.72633571e+00  1.11853221e+00
  9.18054853e-01  4.72633571e+00  2.67125847e+00  2.93297625e+00  5.58553485e+00
  2.67125847e+00  2.93297625e+00  5.58553485e+00  2.67125847e+00  2.93297625e+00
  5.58553485e+00  2.67125847e+00  2.93297625e+00  5.58553485e+00  2.67125847e+00
  2.93297625e+00  5.58553485e+00  2.67125847e+00  2.93297625e+00  5.58553485e+00
  2.67125847e+00  2.93297625e+00  5.58553485e+00  2.67125847e+00  2.93297625e+00
  5.58553485e+00  4.63149802e+00  2.70144057e+00  4.94560115e+00  4.63149802e+00
  2.70144057e+00  4.94560115e+00  2.60875258e+00  2.84999229e+00  7.64544869e+00
  2.60875258e+00  2.84999229e+00  7.64544869e+00  1.94663329e+00  4.77007129e+00
  4.94869428e+00  1.94663329e+00  4.77007129e+00  4.94869428e+00  3.14409752e+00
  3.52527044e+00 -4.44682832e+00  3.14409752e+00  3.52527044e+00 -4.44682832e+00
  3.14409752e+00  3.52527044e+00 -4.44682832e+00  3.14409752e+00  3.52527044e+00
 -4.44682832e+00  3.14409752e+00  3.52527044e+00 -4.44682832e+00  3.14409752e+00
  3.52527044e+00 -4.44682832e+00  3.14409752e+00  3.52527044e+00 -4.44682832e+00
  3.14409752e+00  3.52527044e+00 -4.44682832e+00  3.14409752e+00  3.52527044e+00
 -4.44682832e+00  3.14409752e+00  3.52527044e+00 -4.44682832e+00 -5.74550820e+00
 -1.66063023e+00  2.83847265e+00 -5.74550820e+00 -1.66063023e+00  2.83847265e+00
 -4.01232992e+00 -1.19916436e-01  5.22120405e+00 -4.01232992e+00 -1.19916436e-01
  5.22120405e+00
Total Energy                               R     -1.054881075404024e+03
Alpha Orbital Energies                     R   N=         298
 -1.01550040e+02 -1.91934608e+01 -1.91927363e+01 -1.43241593e+01 -1.02621444e+01
 -1.02577738e+01 -1.02527461e+01 -1.02512360e+01 -1.02502069e+01 -1.02120919e+01
 -1.02081448e+01 -1.02071430e+01 -1.02043192e+01 -1.01931320e+01 -9.46463188e+00
 -7.22887498e+00 -7.21904661e+00 -7.21857432e+00 -1.07780363e+00 -1.07565282e+00
 -8.90614050e-01 -8.85414822e-01 -8.43378414e-01 -7.77702258e-01 -7.67124880e-01
 -7.31539957e-01 -7.18986793e-01 -6.78513568e-01 -6.29969942e-01 -6.14000265e-01
 -5.86909219e-01 -5.35057407e-01 -5.29556484e-01 -5.22911024e-01 -5.00927556e-01
 -4.81939433e-01 -4.77558884e-01 -4.66193439e-01 -4.55179582e-01 -4.45429459e-01
 -4.34551372e-01 -4.24082324e-01 -4.21438926e-01 -4.08477106e-01 -4.02744695e-01
 -3.85785470e-01 -3.77439368e-01 -3.61486060e-01 -3.51620390e-01 -3.43259684e-01
 -3.37888263e-01 -3.35680538e-01 -3.08787623e-01 -2.99242825e-01 -2.57386790e-01
 -2.39933150e-01 -2.10864429e-01 -2.45235528e-02 -5.62012286e-03  2.72140213e-03
  3.76851445e-03  6.76640530e-03  9.23019728e-03  2.67841650e-02  2.79294825e-02
  2.96627980e-02  3.42127366e-02  4.45354298e-02  4.71350763e-02  5.38119372e-02
  5.77413604e-02  6.35677757e-02  7.42939126e-02  7.70716429e-02  8.31497066e-02
  8.64786933e-02  9.14569728e-02  9.29363579e-02  1.02967182e-01  1.08332579e-01
  1.16510490e-01  1.20272949e-01  1.25911485e-01  1.27050077e-01  1.30615590e-01
  1.36793501e-01  1.38601179e-01  1.48902840e-01  1.51650955e-01  1.54866297e-01
  1.59836067e-01  1.61138558e-01  1.67899429e-01  1.78951729e-01  1.79392634e-01
  1.82237892e-01  1.85017293e-01  1.90308732e-01  1.98166293e-01  2.01486879e-01
  2.05269744e-01  2.09500132e-01  2.19051905e-01  2.19502829e-01  2.25279148e-01
  2.30513422e-01  2.31658115e-01  2.38026370e-01  2.39894971e-01  2.42248626e-01
  2.52914659e-01  2.55287128e-01  2.57361435e-01  2.64296674e-01  2.72294451e-01
  2.75448825e-01  2.82759853e-01  2.85886491e-01  2.90322821e-01  2.95656828e-01
  2.99442894e-01  3.00973240e-01  3.07954596e-01  3.12652609e-01  3.14023155e-01
  3.17310339e-01  3.21762453e-01  3.34882632e-01  3.45738330e-01  3.47285151e-01
  3.52274266e-01  3.61704353e-01  3.68614648e-01  3.73462066e-01  3.89561091e-01
  4.03097336e-01  4.08338936e-01  4.22637915e-01  4.35444379e-01  4.40359019e-01
  4.59155713e-01  4.76771118e-01  5.44118953e-01  5.67211037e-01  6.29089531e-01
  6.34000123e-01  6.56403554e-01  6.65118692e-01  6.68222333e-01  6.72279302e-01
  6.78710174e-01  6.81925044e-01  6.94767025e-01  6.95736977e-01  7.03644846e-01
  7.11385066e-01  7.34153429e-01  7.35664772e-01  7.43476338e-01  7.46362331e-01
  7.56473916e-01  7.62769877e-01  7.77938744e-01  7.92710675e-01  8.09605310e-01
  8.23967615e-01  8.47426080e-01  8.69277500e-01  8.76998575e-01  8.79659076e-01
  8.87962396e-01  8.96565255e-01  9.06053242e-01  9.16725948e-01  9.22247409e-01
  9.28978778e-01  9.39568014e-01  9.48776476e-01  9.51192370e-01  9.66418103e-01
  9.79769118e-01  9.80669227e-01  1.01320561e+00  1.03277041e+00  1.05644470e+00
  1.06472155e+00  1.07636620e+00  1.09452502e+00  1.10653681e+00  1.10924457e+00
  1.11726609e+00  1.12571571e+00  1.14029263e+00  1.15101012e+00  1.16137470e+00
  1.18980858e+00  1.19895500e+00  1.21516995e+00  1.22697633e+00  1.23145099e+00