Generated by Psi4
     FORCE                           RHF                       TESTBAS
Number of atoms                            I               31
Charge                                     I                0
Multiplicity                               I                1
Number of electrons                        I              106
Number of alpha electrons                  I               53
Number of beta electrons                   I               53
Number of basis functions                  I              300
Number of independent functions            I              300
Atomic numbers                             I   N=          31
           6           6           6           1           1           7
           6           6           6           6           6           1
           1           1           8           6           1           1
           1           1           8           6           1           1
           1           6           1           1           1           1
           1
Nuclear charges                            R   N=          31
  6.00000000e+00  6.00000000e+00  6.00000000e+00  1.00000000e+00  1.00000000e+00
  7.00000000e+00  6.00000000e+00  6.00000000e+00  6.00000000e+00  6.00000000e+00
  6.00000000e+00  1.00000000e+00  1.00000000e+00  1.00000000e+00  8.00000000e+00
  6.00000000e+00  1.00000000e+00  1.00000000e+00  1.00000000e+00  1.00000000e+00
  8.00000000e+00  6.00000000e+00  1.00000000e+00  1.00000000e+00  1.00000000e+00
  6.00000000e+00  1.00000000e+00  1.00000000e+00  1.00000000e+00  1.00000000e+00
  1.00000000e+00
Current cartesian coordinates              R   N=          93
 -3.23959291e-01 -1.13983583e+00  9.73619959e-01 -1.61833482e+00 -2.76785700e+00
  2.93208280e+00 -4.08098732e+00 -1.57942558e+00  3.97640805e+00 -3.33323624e-01
 -3.11461617e+00  4.52200423e+00 -2.07197884e+00 -4.61498037e+00  2.09844470e+00
 -5.39231984e+00 -3.04968490e+00  5.92183287e+00  1.20199677e+00  9.12341998e-01
  1.68832800e+00  2.34942735e+00  2.42679920e+00 -1.53753236e-01  2.01360383e+00
  1.96575930e+00 -2.73534929e+00  4.83094324e-01 -8.28438800e-02 -3.45142806e+00
 -6.56418976e-01 -1.60156556e+00 -1.61265819e+00 -1.82551967e+00 -3.19448981e+00
 -2.16314235e+00 -4.26610630e+00 -3.30182529e+00  7.46292515e+00 -5.85189834e+00
 -4.80304584e+00  5.27159428e+00  2.23977900e-01 -4.51838320e-01 -6.01214056e+00
 -1.30225485e+00 -2.48255489e+00 -6.86801389e+00 -1.23280236e+00 -2.40913381e+00
 -8.92889514e+00 -3.26933122e+00 -2.27187585e+00 -6.23857087e+00 -5.65046990e-01
 -4.31225485e+00 -6.22064458e+00  3.53482702e+00  4.00714048e+00  3.95279380e-01
  1.47729095e+00  1.29295528e+00  4.24894947e+00  3.03596491e+00  3.30551540e+00
  5.09006740e+00  4.99430532e+00  3.07249749e+00  4.44142708e+00  2.98600331e+00
  3.23177981e+00  7.15169587e+00  2.31350614e+00  5.14420189e+00  4.45166465e+00
  3.25253654e+00  3.60449920e+00 -4.71127905e+00  4.37588942e+00  5.10157533e+00
 -3.82874173e+00  1.84489046e+00  4.49137250e+00 -5.94805960e+00  4.49945978e+00
  2.49406755e+00 -5.93991224e+00 -5.40795872e+00 -1.27009697e+00  2.41336041e+00
 -3.65279730e+00  2.82545385e-01  4.77245071e+00
Integer atomic weights                     I   N=          31
          12          12          12           1           1          14
          12          12          12          12          12           1
           1           1          15          12           1           1
           1           1          15          12           1           1
           1          12           1           1           1           1
           1
Real atomic weights                        R   N=          31
  1.20000000e+01  1.20000000e+01  1.20000000e+01  1.00782503e+00  1.00782503e+00
  1.40030740e+01  1.20000000e+01  1.20000000e+01  1.20000000e+01  1.20000000e+01
  1.20000000e+01  1.00782503e+00  1.00782503e+00  1.00782503e+00  1.59949146e+01
  1.20000000e+01  1.00782503e+00  1.00782503e+00  1.00782503e+00  1.00782503e+00
  1.59949146e+01  1.20000000e+01  1.00782503e+00  1.00782503e+00  1.00782503e+00
  1.20000000e+01  1.00782503e+00  1.00782503e+00  1.00782503e+00  1.00782503e+00
  1.00782503e+00
Number of primitive shells                 I              306
Number of contracted shells                I              146
Pure/Cartesian d shells                    I                1
Pure/Cartesian f shells                    I                1
Highest angular momentum                   I                2
Largest degree of contraction              I                6
Shell types                                I   N=         146
           0           0           1           0           1           2
           0           1           0           0           1           0
           1           2           0           1           0           0
           1           0           1           2           0           1
           0           0           0           0           0           0
           1           0           1           2           0           1
           0           0           1           0           1           2
           0           1           0           0           1           0
           1           2           0           1           0           0
           1           0           1           2           0           1
           0           0           1           0           1           2
           0           1           0           0           1           0
           1           2           0           1           0           0
           0           0           0           0           0           0
           1           0           1           2           0           1
           0           0           1           0           1           2
           0           1           0           0           0           0
           0           0           0           0           0           0
           1           0           1           2           0           1
           0           0           1           0           1           2
           0           1           0           0           0           0
           0           0           0           0           1           0
           1           2           0           1           0           0
           0           0           0           0           0           0
           0           0
Number of primitives per shell             I   N=         146
           6           3           3           1           1           1
           1           1           6           3           3           1
           1           1           1           1           6           3
           3           1           1           1           1           1
           3           1           3           1           6           3
           3           1           1           1           1           1
           6           3           3           1           1           1
           1           1           6           3           3           1
           1           1           1           1           6           3
           3           1           1           1           1           1
           6           3           3           1           1           1
           1           1           6           3           3           1
           1           1           1           1           3           1
           3           1           3           1           6           3
           3           1           1           1           1           1
           6           3           3           1           1           1
           1           1           3           1           3           1
           3           1           3           1           6           3
           3           1           1           1           1           1
           6           3           3           1           1           1
           1           1           3           1           3           1
           3           1           6           3           3           1
           1           1           1           1           3           1
           3           1           3           1           3           1
           3           1
Shell to atom map                          I   N=         146
           1           1           1           1           1           1
           1           1           2           2           2           2
           2           2           2           2           3           3
           3           3           3           3           3           3
           4           4           5           5           6           6
           6           6           6           6           6           6
           7           7           7           7           7           7
           7           7           8           8           8           8
           8           8           8           8           9           9
           9           9           9           9           9           9
          10          10          10          10          10          10
          10          10          11          11          11          11
          11          11          11          11          12          12
          13          13          14          14          15          15
          15          15          15          15          15          15
          16          16          16          16          16          16
          16          16          17          17          18          18
          19          19          20          20          21          21
          21          21          21          21          21          21
          22          22          22          22          22          22
          22          22          23          23          24          24
          25          25          26          26          26          26
          26          26          26          26          27          27
          28          28          29          29          30          30
          31          31
Primitive exponents                        R   N=         306
  3.04752490e+03  4.57369510e+02  1.03948690e+02  2.92101550e+01  9.28666300e+00
  3.16392700e+00  7.86827240e+00  1.88128850e+00  5.44249300e-01  7.86827240e+00
  1.88128850e+00  5.44249300e-01  1.68714400e-01  1.68714400e-01  8.00000000e-01
  4.38000000e-02  4.38000000e-02  3.04752490e+03  4.57369510e+02  1.03948690e+02
  2.92101550e+01  9.28666300e+00  3.16392700e+00  7.86827240e+00  1.88128850e+00
  5.44249300e-01  7.86827240e+00  1.88128850e+00  5.44249300e-01  1.68714400e-01
  1.68714400e-01  8.00000000e-01  4.38000000e-02  4.38000000e-02  3.04752490e+03
  4.57369510e+02  1.03948690e+02  2.92101550e+01  9.28666300e+00  3.16392700e+00
  7.86827240e+00  1.88128850e+00  5.44249300e-01  7.86827240e+00  1.88128850e+00
  5.44249300e-01  1.68714400e-01  1.68714400e-01  8.00000000e-01  4.38000000e-02
  4.38000000e-02  1.87311370e+01  2.82539370e+00  6.40121700e-01  1.61277800e-01
  1.87311370e+01  2.82539370e+00  6.40121700e-01  1.61277800e-01  4.17351100e+03
  6.27457900e+02  1.42902100e+02  4.02343300e+01  1.28202100e+01  4.39043700e+00
  1.16263580e+01  2.71628000e+00  7.72218000e-01  1.16263580e+01  2.71628000e+00
  7.72218000e-01  2.12031300e-01  2.12031300e-01  8.00000000e-01  6.39000000e-02
  6.39000000e-02  3.04752490e+03  4.57369510e+02  1.03948690e+02  2.92101550e+01
  9.28666300e+00  3.16392700e+00  7.86827240e+00  1.88128850e+00  5.44249300e-01
  7.86827240e+00  1.88128850e+00  5.44249300e-01  1.68714400e-01  1.68714400e-01
  8.00000000e-01  4.38000000e-02  4.38000000e-02  3.04752490e+03  4.57369510e+02
  1.03948690e+02  2.92101550e+01  9.28666300e+00  3.16392700e+00  7.86827240e+00
  1.88128850e+00  5.44249300e-01  7.86827240e+00  1.88128850e+00  5.44249300e-01
  1.68714400e-01  1.68714400e-01  8.00000000e-01  4.38000000e-02  4.38000000e-02
  3.04752490e+03  4.57369510e+02  1.03948690e+02  2.92101550e+01  9.28666300e+00
  3.16392700e+00  7.86827240e+00  1.88128850e+00  5.44249300e-01  7.86827240e+00
  1.88128850e+00  5.44249300e-01  1.68714400e-01  1.68714400e-01  8.00000000e-01
  4.38000000e-02  4.38000000e-02  3.04752490e+03  4.57369510e+02  1.03948690e+02
  2.92101550e+01  9.28666300e+00  3.16392700e+00  7.86827240e+00  1.88128850e+00
  5.44249300e-01  7.86827240e+00  1.88128850e+00  5.44249300e-01  1.68714400e-01
  1.68714400e-01  8.00000000e-01  4.38000000e-02  4.38000000e-02  3.04752490e+03
  4.57369510e+02  1.03948690e+02  2.92101550e+01  9.28666300e+00  3.16392700e+00
  7.86827240e+00  1.88128850e+00  5.44249300e-01  7.86827240e+00  1.88128850e+00
  5.44249300e-01  1.68714400e-01  1.68714400e-01  8.00000000e-01  4.38000000e-02
  4.38000000e-02  1.87311370e+01  2.82539370e+00  6.40121700e-01  1.61277800e-01
  1.87311370e+01  2.82539370e+00  6.40121700e-01  1.61277800e-01  1.87311370e+01
  2.82539370e+00  6.40121700e-01  1.61277800e-01  5.48467170e+03  8.25234950e+02
  1.88046960e+02  5.29645000e+01  1.68975700e+01  5.79963530e+00  1.55396160e+01
  3.59993360e+00  1.01376180e+00  1.55396160e+01  3.59993360e+00  1.01376180e+00
  2.70005800e-01  2.70005800e-01  8.00000000e-01  8.45000000e-02  8.45000000e-02
  3.04752490e+03  4.57369510e+02  1.03948690e+02  2.92101550e+01  9.28666300e+00
  3.16392700e+00  7.86827240e+00  1.88128850e+00  5.44249300e-01  7.86827240e+00
  1.88128850e+00  5.44249300e-01  1.68714400e-01  1.68714400e-01  8.00000000e-01
  4.38000000e-02  4.38000000e-02  1.87311370e+01  2.82539370e+00  6.40121700e-01
  1.61277800e-01  1.87311370e+01  2.82539370e+00  6.40121700e-01  1.61277800e-01
  1.87311370e+01  2.82539370e+00  6.40121700e-01  1.61277800e-01  1.87311370e+01
  2.82539370e+00  6.40121700e-01  1.61277800e-01  5.48467170e+03  8.25234950e+02
  1.88046960e+02  5.29645000e+01  1.68975700e+01  5.79963530e+00  1.55396160e+01
  3.59993360e+00  1.01376180e+00  1.55396160e+01  3.59993360e+00  1.01376180e+00
  2.70005800e-01  2.70005800e-01  8.00000000e-01  8.45000000e-02  8.45000000e-02
  3.04752490e+03  4.57369510e+02  1.03948690e+02  2.92101550e+01  9.28666300e+00
  3.16392700e+00  7.86827240e+00  1.88128850e+00  5.44249300e-01  7.86827240e+00
  1.88128850e+00  5.44249300e-01  1.68714400e-01  1.68714400e-01  8.00000000e-01
  4.38000000e-02  4.38000000e-02  1.87311370e+01  2.82539370e+00  6.40121700e-01
  1.61277800e-01  1.87311370e+01  2.82539370e+00  6.40121700e-01  1.61277800e-01
  1.87311370e+01  2.82539370e+00  6.40121700e-01  1.61277800e-01  3.04752490e+03
  4.57369510e+02  1.03948690e+02  2.92101550e+01  9.28666300e+00  3.16392700e+00
  7.86827240e+00  1.88128850e+00  5.44249300e-01  7.86827240e+00  1.88128850e+00
  5.44249300e-01  1.68714400e-01  1.68714400e-01  8.00000000e-01  4.38000000e-02
  4.38000000e-02  1.87311370e+01  2.82539370e+00  6.40121700e-01  1.61277800e-01
  1.87311370e+01  2.82539370e+00  6.40121700e-01  1.61277800e-01  1.87311370e+01
  2.82539370e+00  6.40121700e-01  1.61277800e-01  1.87311370e+01  2.82539370e+00
  6.40121700e-01  1.61277800e-01  1.87311370e+01  2.82539370e+00  6.40121700e-01
  1.61277800e-01
Contraction coefficients                   R   N=         306
  1.83470016e-03  1.40373012e-02  6.88426061e-02  2.32184421e-01  4.67941342e-01
  3.62312032e-01 -1.19332409e-01 -1.60854212e-01  1.14345648e+00  6.89990956e-02
  3.16423980e-01  7.44308252e-01  1.00000000e+00  1.00000000e+00  1.00000000e+00
  1.00000000e+00  1.00000000e+00  1.83470016e-03  1.40373012e-02  6.88426061e-02
  2.32184421e-01  4.67941342e-01  3.62312032e-01 -1.19332409e-01 -1.60854212e-01
  1.14345648e+00  6.89990956e-02  3.16423980e-01  7.44308252e-01  1.00000000e+00
  1.00000000e+00  1.00000000e+00  1.00000000e+00  1.00000000e+00  1.83470016e-03
  1.40373012e-02  6.88426061e-02  2.32184421e-01  4.67941342e-01  3.62312032e-01
 -1.19332409e-01 -1.60854212e-01  1.14345648e+00  6.89990956e-02  3.16423980e-01
  7.44308252e-01  1.00000000e+00  1.00000000e+00  1.00000000e+00  1.00000000e+00
  1.00000000e+00  3.34945995e-02  2.34726947e-01  8.13757318e-01  1.00000000e+00
  3.34945995e-02  2.34726947e-01  8.13757318e-01  1.00000000e+00  1.83479944e-03
  1.39949958e-02  6.85869792e-02  2.32240930e-01  4.69069858e-01  3.60454891e-01
 -1.14961023e-01 -1.69118034e-01  1.14585223e+00  6.75800232e-02  3.23907111e-01
  7.40895255e-01  1.00000000e+00  1.00000000e+00  1.00000000e+00  1.00000000e+00
  1.00000000e+00  1.83470016e-03  1.40373012e-02  6.88426061e-02  2.32184421e-01
  4.67941342e-01  3.62312032e-01 -1.19332409e-01 -1.60854212e-01  1.14345648e+00
  6.89990956e-02  3.16423980e-01  7.44308252e-01  1.00000000e+00  1.00000000e+00
  1.00000000e+00  1.00000000e+00  1.00000000e+00  1.83470016e-03  1.40373012e-02
  6.88426061e-02  2.32184421e-01  4.67941342e-01  3.62312032e-01 -1.19332409e-01
 -1.60854212e-01  1.14345648e+00  6.89990956e-02  3.16423980e-01  7.44308252e-01
  1.00000000e+00  1.00000000e+00  1.00000000e+00  1.00000000e+00  1.00000000e+00
  1.83470016e-03  1.40373012e-02  6.88426061e-02  2.32184421e-01  4.67941342e-01
  3.62312032e-01 -1.19332409e-01 -1.60854212e-01  1.14345648e+00  6.89990956e-02
  3.16423980e-01  7.44308252e-01  1.00000000e+00  1.00000000e+00  1.00000000e+00
  1.00000000e+00  1.00000000e+00  1.83470016e-03  1.40373012e-02  6.88426061e-02
  2.32184421e-01  4.67941342e-01  3.62312032e-01 -1.19332409e-01 -1.60854212e-01
  1.14345648e+00  6.89990956e-02  3.16423980e-01  7.44308252e-01  1.00000000e+00
  1.00000000e+00  1.00000000e+00  1.00000000e+00  1.00000000e+00  1.83470016e-03
  1.40373012e-02  6.88426061e-02  2.32184421e-01  4.67941342e-01  3.62312032e-01
 -1.19332409e-01 -1.60854212e-01  1.14345648e+00  6.89990956e-02  3.16423980e-01
  7.44308252e-01  1.00000000e+00  1.00000000e+00  1.00000000e+00  1.00000000e+00
  1.00000000e+00  3.34945995e-02  2.34726947e-01  8.13757318e-01  1.00000000e+00
  3.34945995e-02  2.34726947e-01  8.13757318e-01  1.00000000e+00  3.34945995e-02
  2.34726947e-01  8.13757318e-01  1.00000000e+00  1.83109981e-03  1.39500985e-02
  6.84450927e-02  2.32714275e-01  4.70192950e-01  3.58520862e-01 -1.10777504e-01
 -1.48026305e-01  1.13076704e+00  7.08742995e-02  3.39752798e-01  7.27158595e-01
  1.00000000e+00  1.00000000e+00  1.00000000e+00  1.00000000e+00  1.00000000e+00
  1.83470016e-03  1.40373012e-02  6.88426061e-02  2.32184421e-01  4.67941342e-01
  3.62312032e-01 -1.19332409e-01 -1.60854212e-01  1.14345648e+00  6.89990956e-02
  3.16423980e-01  7.44308252e-01  1.00000000e+00  1.00000000e+00  1.00000000e+00
  1.00000000e+00  1.00000000e+00  3.34945995e-02  2.34726947e-01  8.13757318e-01
  1.00000000e+00  3.34945995e-02  2.34726947e-01  8.13757318e-01  1.00000000e+00
  3.34945995e-02  2.34726947e-01  8.13757318e-01  1.00000000e+00  3.34945995e-02
  2.34726947e-01  8.13757318e-01  1.00000000e+00  1.83109981e-03  1.39500985e-02
  6.84450927e-02  2.32714275e-01  4.70192950e-01  3.58520862e-01 -1.10777504e-01
 -1.48026305e-01  1.13076704e+00  7.08742995e-02  3.39752798e-01  7.27158595e-01
  1.00000000e+00  1.00000000e+00  1.00000000e+00  1.00000000e+00  1.00000000e+00
  1.83470016e-03  1.40373012e-02  6.88426061e-02  2.32184421e-01  4.67941342e-01
  3.62312032e-01 -1.19332409e-01 -1.60854212e-01  1.14345648e+00  6.89990956e-02
  3.16423980e-01  7.44308252e-01  1.00000000e+00  1.00000000e+00  1.00000000e+00
  1.00000000e+00  1.00000000e+00  3.34945995e-02  2.34726947e-01  8.13757318e-01
  1.00000000e+00  3.34945995e-02  2.34726947e-01  8.13757318e-01  1.00000000e+00
  3.34945995e-02  2.34726947e-01  8.13757318e-01  1.00000000e+00  1.83470016e-03
  1.40373012e-02  6.88426061e-02  2.32184421e-01  4.67941342e-01  3.62312032e-01
 -1.19332409e-01 -1.60854212e-01  1.14345648e+00  6.89990956e-02  3.16423980e-01
  7.44308252e-01  1.00000000e+00  1.00000000e+00  1.00000000e+00  1.00000000e+00
  1.00000000e+00  3.34945995e-02  2.34726947e-01  8.13757318e-01  1.00000000e+00
  3.34945995e-02  2.34726947e-01  8.13757318e-01  1.00000000e+00  3.34945995e-02
  2.34726947e-01  8.13757318e-01  1.00000000e+00  3.34945995e-02  2.34726947e-01
  8.13757318e-01  1.00000000e+00  3.34945995e-02  2.34726947e-01  8.13757318e-01
  1.00000000e+00
Coordinates of each shell                  R   N=         438
 -3.23959291e-01 -1.13983583e+00  9.73619959e-01 -3.23959291e-01 -1.13983583e+00
  9.73619959e-01 -3.23959291e-01 -1.13983583e+00  9.73619959e-01 -3.23959291e-01
 -1.13983583e+00  9.73619959e-01 -3.23959291e-01 -1.13983583e+00  9.73619959e-01
 -3.23959291e-01 -1.13983583e+00  9.73619959e-01 -3.23959291e-01 -1.13983583e+00
  9.73619959e-01 -3.23959291e-01 -1.13983583e+00  9.73619959e-01 -1.61833482e+00
 -2.76785700e+00  2.93208280e+00 -1.61833482e+00 -2.76785700e+00  2.93208280e+00
 -1.61833482e+00 -2.76785700e+00  2.93208280e+00 -1.61833482e+00 -2.76785700e+00
  2.93208280e+00 -1.61833482e+00 -2.76785700e+00  2.93208280e+00 -1.61833482e+00
 -2.76785700e+00  2.93208280e+00 -1.61833482e+00 -2.76785700e+00  2.93208280e+00
 -1.61833482e+00 -2.76785700e+00  2.93208280e+00 -4.08098732e+00 -1.57942558e+00
  3.97640805e+00 -4.08098732e+00 -1.57942558e+00  3.97640805e+00 -4.08098732e+00
 -1.57942558e+00  3.97640805e+00 -4.08098732e+00 -1.57942558e+00  3.97640805e+00
 -4.08098732e+00 -1.57942558e+00  3.97640805e+00 -4.08098732e+00 -1.57942558e+00
  3.97640805e+00 -4.08098732e+00 -1.57942558e+00  3.97640805e+00 -4.08098732e+00
 -1.57942558e+00  3.97640805e+00 -3.33323624e-01 -3.11461617e+00  4.52200423e+00
 -3.33323624e-01 -3.11461617e+00  4.52200423e+00 -2.07197884e+00 -4.61498037e+00
  2.09844470e+00 -2.07197884e+00 -4.61498037e+00  2.09844470e+00 -5.39231984e+00
 -3.04968490e+00  5.92183287e+00 -5.39231984e+00 -3.04968490e+00  5.92183287e+00
 -5.39231984e+00 -3.04968490e+00  5.92183287e+00 -5.39231984e+00 -3.04968490e+00
  5.92183287e+00 -5.39231984e+00 -3.04968490e+00  5.92183287e+00 -5.39231984e+00
 -3.04968490e+00  5.92183287e+00 -5.39231984e+00 -3.04968490e+00  5.92183287e+00
 -5.39231984e+00 -3.04968490e+00  5.92183287e+00  1.20199677e+00  9.12341998e-01
  1.68832800e+00  1.20199677e+00  9.12341998e-01  1.68832800e+00  1.20199677e+00
  9.12341998e-01  1.68832800e+00  1.20199677e+00  9.12341998e-01  1.68832800e+00
  1.20199677e+00  9.12341998e-01  1.68832800e+00  1.20199677e+00  9.12341998e-01
  1.68832800e+00  1.20199677e+00  9.12341998e-01  1.68832800e+00  1.20199677e+00
  9.12341998e-01  1.68832800e+00  2.34942735e+00  2.42679920e+00 -1.53753236e-01
  2.34942735e+00  2.42679920e+00 -1.53753236e-01  2.34942735e+00  2.42679920e+00
 -1.53753236e-01  2.34942735e+00  2.42679920e+00 -1.53753236e-01  2.34942735e+00
  2.42679920e+00 -1.53753236e-01  2.34942735e+00  2.42679920e+00 -1.53753236e-01
  2.34942735e+00  2.42679920e+00 -1.53753236e-01  2.34942735e+00  2.42679920e+00
 -1.53753236e-01  2.01360383e+00  1.96575930e+00 -2.73534929e+00  2.01360383e+00
  1.96575930e+00 -2.73534929e+00  2.01360383e+00  1.96575930e+00 -2.73534929e+00
  2.01360383e+00  1.96575930e+00 -2.73534929e+00  2.01360383e+00  1.96575930e+00
 -2.73534929e+00  2.01360383e+00  1.96575930e+00 -2.73534929e+00  2.01360383e+00
  1.96575930e+00 -2.73534929e+00  2.01360383e+00  1.96575930e+00 -2.73534929e+00
  4.83094324e-01 -8.28438800e-02 -3.45142806e+00  4.83094324e-01 -8.28438800e-02
 -3.45142806e+00  4.83094324e-01 -8.28438800e-02 -3.45142806e+00  4.83094324e-01
 -8.28438800e-02 -3.45142806e+00  4.83094324e-01 -8.28438800e-02 -3.45142806e+00
  4.83094324e-01 -8.28438800e-02 -3.45142806e+00  4.83094324e-01 -8.28438800e-02
 -3.45142806e+00  4.83094324e-01 -8.28438800e-02 -3.45142806e+00 -6.56418976e-01
 -1.60156556e+00 -1.61265819e+00 -6.56418976e-01 -1.60156556e+00 -1.61265819e+00
 -6.56418976e-01 -1.60156556e+00 -1.61265819e+00 -6.56418976e-01 -1.60156556e+00
 -1.61265819e+00 -6.56418976e-01 -1.60156556e+00 -1.61265819e+00 -6.56418976e-01
 -1.60156556e+00 -1.61265819e+00 -6.56418976e-01 -1.60156556e+00 -1.61265819e+00
 -6.56418976e-01 -1.60156556e+00 -1.61265819e+00 -1.82551967e+00 -3.19448981e+00
 -2.16314235e+00 -1.82551967e+00 -3.19448981e+00 -2.16314235e+00 -4.26610630e+00
 -3.30182529e+00  7.46292515e+00 -4.26610630e+00 -3.30182529e+00  7.46292515e+00
 -5.85189834e+00 -4.80304584e+00  5.27159428e+00 -5.85189834e+00 -4.80304584e+00
  5.27159428e+00  2.23977900e-01 -4.51838320e-01 -6.01214056e+00  2.23977900e-01
 -4.51838320e-01 -6.01214056e+00  2.23977900e-01 -4.51838320e-01 -6.01214056e+00
  2.23977900e-01 -4.51838320e-01 -6.01214056e+00  2.23977900e-01 -4.51838320e-01
 -6.01214056e+00  2.23977900e-01 -4.51838320e-01 -6.01214056e+00  2.23977900e-01
 -4.51838320e-01 -6.01214056e+00  2.23977900e-01 -4.51838320e-01 -6.01214056e+00
 -1.30225485e+00 -2.48255489e+00 -6.86801389e+00 -1.30225485e+00 -2.48255489e+00
 -6.86801389e+00 -1.30225485e+00 -2.48255489e+00 -6.86801389e+00 -1.30225485e+00
 -2.48255489e+00 -6.86801389e+00 -1.30225485e+00 -2.48255489e+00 -6.86801389e+00
 -1.30225485e+00 -2.48255489e+00 -6.86801389e+00 -1.30225485e+00 -2.48255489e+00
 -6.86801389e+00 -1.30225485e+00 -2.48255489e+00 -6.86801389e+00 -1.23280236e+00
 -2.40913381e+00 -8.92889514e+00 -1.23280236e+00 -2.40913381e+00 -8.92889514e+00
 -3.26933122e+00 -2.27187585e+00 -6.23857087e+00 -3.26933122e+00 -2.27187585e+00
 -6.23857087e+00 -5.65046990e-01 -4.31225485e+00 -6.22064458e+00 -5.65046990e-01
 -4.31225485e+00 -6.22064458e+00  3.53482702e+00  4.00714048e+00  3.95279380e-01
  3.53482702e+00  4.00714048e+00  3.95279380e-01  1.47729095e+00  1.29295528e+00
  4.24894947e+00  1.47729095e+00  1.29295528e+00  4.24894947e+00  1.47729095e+00
  1.29295528e+00  4.24894947e+00  1.47729095e+00  1.29295528e+00  4.24894947e+00
  1.47729095e+00  1.29295528e+00  4.24894947e+00  1.47729095e+00  1.29295528e+00
  4.24894947e+00  1.47729095e+00  1.29295528e+00  4.24894947e+00  1.47729095e+00
  1.29295528e+00  4.24894947e+00  3.03596491e+00  3.30551540e+00  5.09006740e+00
  3.03596491e+00  3.30551540e+00  5.09006740e+00  3.03596491e+00  3.30551540e+00
  5.09006740e+00  3.03596491e+00  3.30551540e+00  5.09006740e+00  3.03596491e+00
  3.30551540e+00  5.09006740e+00  3.03596491e+00  3.30551540e+00  5.09006740e+00
  3.03596491e+00  3.30551540e+00  5.09006740e+00  3.03596491e+00  3.30551540e+00
  5.09006740e+00  4.99430532e+00  3.07249749e+00  4.44142708e+00  4.99430532e+00
  3.07249749e+00  4.44142708e+00  2.98600331e+00  3.23177981e+00  7.15169587e+00
  2.98600331e+00  3.23177981e+00  7.15169587e+00  2.31350614e+00  5.14420189e+00
  4.45166465e+00  2.31350614e+00  5.14420189e+00  4.45166465e+00  3.25253654e+00
  3.60449920e+00 -4.71127905e+00  3.25253654e+00  3.60449920e+00 -4.71127905e+00
  3.25253654e+00  3.60449920e+00 -4.71127905e+00  3.25253654e+00  3.60449920e+00
 -4.71127905e+00  3.25253654e+00  3.60449920e+00 -4.71127905e+00  3.25253654e+00
  3.60449920e+00 -4.71127905e+00  3.25253654e+00  3.60449920e+00 -4.71127905e+00
  3.25253654e+00  3.60449920e+00 -4.71127905e+00  4.37588942e+00  5.10157533e+00
 -3.82874173e+00  4.37588942e+00  5.10157533e+00 -3.82874173e+00  1.84489046e+00
  4.49137250e+00 -5.94805960e+00  1.84489046e+00  4.49137250e+00 -5.94805960e+00
  4.49945978e+00  2.49406755e+00 -5.93991224e+00  4.49945978e+00  2.49406755e+00
 -5.93991224e+00 -5.40795872e+00 -1.27009697e+00  2.41336041e+00 -5.40795872e+00
 -1.27009697e+00  2.41336041e+00 -3.65279730e+00  2.82545385e-01  4.77245071e+00
 -3.65279730e+00  2.82545385e-01  4.77245071e+00
Total Energy                               R     -6.346069686767420e+02
Alpha Orbital Energies                     R   N=         300
 -1.91828266e+01 -1.91824173e+01 -1.43185526e+01 -1.02439144e+01 -1.02432995e+01
 -1.02431979e+01 -1.02422473e+01 -1.02050019e+01 -1.01972230e+01 -1.01949364e+01
 -1.01903575e+01 -1.01902051e+01 -1.01846075e+01 -1.01813204e+01 -1.06474644e+00
 -1.06389790e+00 -8.80593138e-01 -8.55932702e-01 -7.93376420e-01 -7.53490319e-01
 -7.30533460e-01 -7.20914572e-01 -6.94679485e-01 -6.59579227e-01 -6.14158690e-01
 -6.01024028e-01 -5.73768957e-01 -5.18488676e-01 -5.18076601e-01 -5.10397330e-01
 -4.93511622e-01 -4.72910392e-01 -4.69103752e-01 -4.53864006e-01 -4.46568344e-01
 -4.37226897e-01 -4.18506846e-01 -4.15956291e-01 -4.13306865e-01 -4.02415667e-01
 -3.95529450e-01 -3.83362937e-01 -3.76626659e-01 -3.63198088e-01 -3.59700252e-01
 -3.46822524e-01 -3.42058262e-01 -3.34248863e-01 -3.20273832e-01 -2.91828459e-01
 -2.50777512e-01 -2.32660301e-01 -1.99633547e-01 -1.01804312e-02 -3.93055486e-04
  4.19063640e-03  9.22780308e-03  1.58644443e-02  1.99453713e-02  2.80652631e-02
  3.21951127e-02  3.45125251e-02  4.40091151e-02  4.84659194e-02  5.01017641e-02
  5.20201448e-02  6.63705856e-02  7.06811262e-02  7.37959992e-02  7.71637739e-02
  8.04964143e-02  8.89737906e-02  9.45374142e-02  9.62856978e-02  1.04485548e-01
  1.10247815e-01  1.15922670e-01  1.23124402e-01  1.26575656e-01  1.31175352e-01
  1.39751068e-01  1.42175949e-01  1.49928778e-01  1.51628918e-01  1.57745373e-01
  1.59486889e-01  1.62647642e-01  1.68772467e-01  1.78058805e-01  1.80634645e-01
  1.83150251e-01  1.88355339e-01  1.89755294e-01  1.97661416e-01  2.04553439e-01
  2.06370399e-01  2.10888471e-01  2.12934430e-01  2.19985930e-01  2.25494560e-01
  2.28668301e-01  2.33615753e-01  2.37316314e-01  2.40051361e-01  2.45585941e-01
  2.52730815e-01  2.55645796e-01  2.59402555e-01  2.60994497e-01  2.67326994e-01
  2.71151710e-01  2.73540917e-01  2.80479259e-01  2.88579876e-01  2.89974214e-01
  2.93943019e-01  2.99786791e-01  3.05937199e-01  3.09341917e-01  3.11630591e-01
  3.16770297e-01  3.22681274e-01  3.25334027e-01  3.28150380e-01  3.36627359e-01
  3.37959538e-01  3.45545385e-01  3.54576291e-01  3.64485809e-01  3.72246819e-01
  3.82678526e-01  3.94353475e-01  3.97692922e-01  4.13507785e-01  4.19026941e-01
  4.39500738e-01  4.47078385e-01  4.55363720e-01  4.61363061e-01  4.69749577e-01
  4.91833329e-01  5.85894851e-01  6.30127923e-01  6.64861754e-01  6.69565223e-01
  6.80028015e-01  6.84737283e-01  6.89776922e-01  6.97803864e-01  7.00701948e-01
  7.06513399e-01  7.11531126e-01  7.23525830e-01  7.28543936e-01  7.49572900e-01
  7.54988711e-01  7.61313049e-01  7.70088343e-01  7.84391613e-01  7.89875552e-01