Generated by Psi4
     FORCE                           RHF                       TESTBAS
Number of atoms                            I               23
Charge                                     I                0
Multiplicity                               I                1
Number of electrons                        I               94
Number of alpha electrons                  I               47
Number of beta electrons                   I               47
Number of basis functions                  I              267
Number of independent functions            I              267
Atomic numbers                             I   N=          23
           6           6           6           6           6           6
           1           1           1           8           6           8
           1           1           6           6           1           1
           8           6           1           1           1
Nuclear charges                            R   N=          23
  6.00000000e+00  6.00000000e+00  6.00000000e+00  6.00000000e+00  6.00000000e+00
  6.00000000e+00  1.00000000e+00  1.00000000e+00  1.00000000e+00  8.00000000e+00
  6.00000000e+00  8.00000000e+00  1.00000000e+00  1.00000000e+00  6.00000000e+00
  6.00000000e+00  1.00000000e+00  1.00000000e+00  8.00000000e+00  6.00000000e+00
  1.00000000e+00  1.00000000e+00  1.00000000e+00
Current cartesian coordinates              R   N=          69
 -8.37913927e-01  7.73840734e-01  1.57757696e+00  1.43674022e+00  2.10467875e+00
  1.79178993e+00  2.97318602e+00  2.63042796e+00 -3.15777557e-01  2.13491653e+00
  1.75724657e+00 -2.62633347e+00 -1.29764109e-01  4.34969911e-01 -2.86459733e+00
 -1.65833071e+00 -7.77691893e-02 -8.15309919e-01  2.05525036e+00  2.74230871e+00
  3.64408738e+00 -3.41804845e+00 -1.10949895e+00 -1.04224801e+00  4.72899391e+00
  3.67425976e+00 -1.35539333e-01 -5.49402548e-01 -1.18152560e-01 -5.37647861e+00
  1.79990641e+00  4.30365868e-01 -6.61000062e+00  3.20525806e+00  2.07626973e+00
 -4.98170576e+00  1.42814307e+00  1.38767667e+00 -8.39782901e+00  2.85978498e+00
 -1.33628337e+00 -6.88287283e+00 -2.39756631e+00  1.90154281e-01  3.89264346e+00
 -1.91446621e+00 -2.41094159e+00  5.08921954e+00 -4.43036902e+00  3.20832595e-01
  3.47878207e+00 -2.05471365e+00  1.60144909e+00  5.37965240e+00 -2.41054003e-01
 -3.81311060e+00  4.37381121e+00 -3.67938308e+00 -3.13594467e+00  7.23614559e+00
 -5.55422118e+00 -3.58649333e+00  6.46710444e+00 -3.93232753e+00 -1.57162870e+00
  8.57186990e+00 -2.94679079e+00 -4.79558844e+00  8.22119565e+00
Integer atomic weights                     I   N=          23
          12          12          12          12          12          12
           1           1           1          15          12          15
           1           1          12          12           1           1
          15          12           1           1           1
Real atomic weights                        R   N=          23
  1.20000000e+01  1.20000000e+01  1.20000000e+01  1.20000000e+01  1.20000000e+01
  1.20000000e+01  1.00782503e+00  1.00782503e+00  1.00782503e+00  1.59949146e+01
  1.20000000e+01  1.59949146e+01  1.00782503e+00  1.00782503e+00  1.20000000e+01
  1.20000000e+01  1.00782503e+00  1.00782503e+00  1.59949146e+01  1.20000000e+01
  1.00782503e+00  1.00782503e+00  1.00782503e+00
Number of primitive shells                 I              261
Number of contracted shells                I              124
Pure/Cartesian d shells                    I                1
Pure/Cartesian f shells                    I                1
Highest angular momentum                   I                2
Largest degree of contraction              I                6
Shell types                                I   N=         124
           0           0           1           0           1           2
           0           1           0           0           1           0
           1           2           0           1           0           0
           1           0           1           2           0           1
           0           0           1           0           1           2
           0           1           0           0           1           0
           1           2           0           1           0           0
           1           0           1           2           0           1
           0           0           0           0           0           0
           0           0           1           0           1           2
           0           1           0           0           1           0
           1           2           0           1           0           0
           1           0           1           2           0           1
           0           0           0           0           0           0
           1           0           1           2           0           1
           0           0           1           0           1           2
           0           1           0           0           0           0
           0           0           1           0           1           2
           0           1           0           0           1           0
           1           2           0           1           0           0
           0           0           0           0
Number of primitives per shell             I   N=         124
           6           3           3           1           1           1
           1           1           6           3           3           1
           1           1           1           1           6           3
           3           1           1           1           1           1
           6           3           3           1           1           1
           1           1           6           3           3           1
           1           1           1           1           6           3
           3           1           1           1           1           1
           3           1           3           1           3           1
           6           3           3           1           1           1
           1           1           6           3           3           1
           1           1           1           1           6           3
           3           1           1           1           1           1
           3           1           3           1           6           3
           3           1           1           1           1           1
           6           3           3           1           1           1
           1           1           3           1           3           1
           6           3           3           1           1           1
           1           1           6           3           3           1
           1           1           1           1           3           1
           3           1           3           1
Shell to atom map                          I   N=         124
           1           1           1           1           1           1
           1           1           2           2           2           2
           2           2           2           2           3           3
           3           3           3           3           3           3
           4           4           4           4           4           4
           4           4           5           5           5           5
           5           5           5           5           6           6
           6           6           6           6           6           6
           7           7           8           8           9           9
          10          10          10          10          10          10
          10          10          11          11          11          11
          11          11          11          11          12          12
          12          12          12          12          12          12
          13          13          14          14          15          15
          15          15          15          15          15          15
          16          16          16          16          16          16
          16          16          17          17          18          18
          19          19          19          19          19          19
          19          19          20          20          20          20
          20          20          20          20          21          21
          22          22          23          23
Primitive exponents                        R   N=         261
  3.04752490e+03  4.57369510e+02  1.03948690e+02  2.92101550e+01  9.28666300e+00
  3.16392700e+00  7.86827240e+00  1.88128850e+00  5.44249300e-01  7.86827240e+00
  1.88128850e+00  5.44249300e-01  1.68714400e-01  1.68714400e-01  8.00000000e-01
  4.38000000e-02  4.38000000e-02  3.04752490e+03  4.57369510e+02  1.03948690e+02
  2.92101550e+01  9.28666300e+00  3.16392700e+00  7.86827240e+00  1.88128850e+00
  5.44249300e-01  7.86827240e+00  1.88128850e+00  5.44249300e-01  1.68714400e-01
  1.68714400e-01  8.00000000e-01  4.38000000e-02  4.38000000e-02  3.04752490e+03
  4.57369510e+02  1.03948690e+02  2.92101550e+01  9.28666300e+00  3.16392700e+00
  7.86827240e+00  1.88128850e+00  5.44249300e-01  7.86827240e+00  1.88128850e+00
  5.44249300e-01  1.68714400e-01  1.68714400e-01  8.00000000e-01  4.38000000e-02
  4.38000000e-02  3.04752490e+03  4.57369510e+02  1.03948690e+02  2.92101550e+01
  9.28666300e+00  3.16392700e+00  7.86827240e+00  1.88128850e+00  5.44249300e-01
  7.86827240e+00  1.88128850e+00  5.44249300e-01  1.68714400e-01  1.68714400e-01
  8.00000000e-01  4.38000000e-02  4.38000000e-02  3.04752490e+03  4.57369510e+02
  1.03948690e+02  2.92101550e+01  9.28666300e+00  3.16392700e+00  7.86827240e+00
  1.88128850e+00  5.44249300e-01  7.86827240e+00  1.88128850e+00  5.44249300e-01
  1.68714400e-01  1.68714400e-01  8.00000000e-01  4.38000000e-02  4.38000000e-02
  3.04752490e+03  4.57369510e+02  1.03948690e+02  2.92101550e+01  9.28666300e+00
  3.16392700e+00  7.86827240e+00  1.88128850e+00  5.44249300e-01  7.86827240e+00
  1.88128850e+00  5.44249300e-01  1.68714400e-01  1.68714400e-01  8.00000000e-01
  4.38000000e-02  4.38000000e-02  1.87311370e+01  2.82539370e+00  6.40121700e-01
  1.61277800e-01  1.87311370e+01  2.82539370e+00  6.40121700e-01  1.61277800e-01
  1.87311370e+01  2.82539370e+00  6.40121700e-01  1.61277800e-01  5.48467170e+03
  8.25234950e+02  1.88046960e+02  5.29645000e+01  1.68975700e+01  5.79963530e+00
  1.55396160e+01  3.59993360e+00  1.01376180e+00  1.55396160e+01  3.59993360e+00
  1.01376180e+00  2.70005800e-01  2.70005800e-01  8.00000000e-01  8.45000000e-02
  8.45000000e-02  3.04752490e+03  4.57369510e+02  1.03948690e+02  2.92101550e+01
  9.28666300e+00  3.16392700e+00  7.86827240e+00  1.88128850e+00  5.44249300e-01
  7.86827240e+00  1.88128850e+00  5.44249300e-01  1.68714400e-01  1.68714400e-01
  8.00000000e-01  4.38000000e-02  4.38000000e-02  5.48467170e+03  8.25234950e+02
  1.88046960e+02  5.29645000e+01  1.68975700e+01  5.79963530e+00  1.55396160e+01
  3.59993360e+00  1.01376180e+00  1.55396160e+01  3.59993360e+00  1.01376180e+00
  2.70005800e-01  2.70005800e-01  8.00000000e-01  8.45000000e-02  8.45000000e-02
  1.87311370e+01  2.82539370e+00  6.40121700e-01  1.61277800e-01  1.87311370e+01
  2.82539370e+00  6.40121700e-01  1.61277800e-01  3.04752490e+03  4.57369510e+02
  1.03948690e+02  2.92101550e+01  9.28666300e+00  3.16392700e+00  7.86827240e+00
  1.88128850e+00  5.44249300e-01  7.86827240e+00  1.88128850e+00  5.44249300e-01
  1.68714400e-01  1.68714400e-01  8.00000000e-01  4.38000000e-02  4.38000000e-02
  3.04752490e+03  4.57369510e+02  1.03948690e+02  2.92101550e+01  9.28666300e+00
  3.16392700e+00  7.86827240e+00  1.88128850e+00  5.44249300e-01  7.86827240e+00
  1.88128850e+00  5.44249300e-01  1.68714400e-01  1.68714400e-01  8.00000000e-01
  4.38000000e-02  4.38000000e-02  1.87311370e+01  2.82539370e+00  6.40121700e-01
  1.61277800e-01  1.87311370e+01  2.82539370e+00  6.40121700e-01  1.61277800e-01
  5.48467170e+03  8.25234950e+02  1.88046960e+02  5.29645000e+01  1.68975700e+01
  5.79963530e+00  1.55396160e+01  3.59993360e+00  1.01376180e+00  1.55396160e+01
  3.59993360e+00  1.01376180e+00  2.70005800e-01  2.70005800e-01  8.00000000e-01
  8.45000000e-02  8.45000000e-02  3.04752490e+03  4.57369510e+02  1.03948690e+02
  2.92101550e+01  9.28666300e+00  3.16392700e+00  7.86827240e+00  1.88128850e+00
  5.44249300e-01  7.86827240e+00  1.88128850e+00  5.44249300e-01  1.68714400e-01
  1.68714400e-01  8.00000000e-01  4.38000000e-02  4.38000000e-02  1.87311370e+01
  2.82539370e+00  6.40121700e-01  1.61277800e-01  1.87311370e+01  2.82539370e+00
  6.40121700e-01  1.61277800e-01  1.87311370e+01  2.82539370e+00  6.40121700e-01
  1.61277800e-01
Contraction coefficients                   R   N=         261
  1.83470016e-03  1.40373012e-02  6.88426061e-02  2.32184421e-01  4.67941342e-01
  3.62312032e-01 -1.19332409e-01 -1.60854212e-01  1.14345648e+00  6.89990956e-02
  3.16423980e-01  7.44308252e-01  1.00000000e+00  1.00000000e+00  1.00000000e+00
  1.00000000e+00  1.00000000e+00  1.83470016e-03  1.40373012e-02  6.88426061e-02
  2.32184421e-01  4.67941342e-01  3.62312032e-01 -1.19332409e-01 -1.60854212e-01
  1.14345648e+00  6.89990956e-02  3.16423980e-01  7.44308252e-01  1.00000000e+00
  1.00000000e+00  1.00000000e+00  1.00000000e+00  1.00000000e+00  1.83470016e-03
  1.40373012e-02  6.88426061e-02  2.32184421e-01  4.67941342e-01  3.62312032e-01
 -1.19332409e-01 -1.60854212e-01  1.14345648e+00  6.89990956e-02  3.16423980e-01
  7.44308252e-01  1.00000000e+00  1.00000000e+00  1.00000000e+00  1.00000000e+00
  1.00000000e+00  1.83470016e-03  1.40373012e-02  6.88426061e-02  2.32184421e-01
  4.67941342e-01  3.62312032e-01 -1.19332409e-01 -1.60854212e-01  1.14345648e+00
  6.89990956e-02  3.16423980e-01  7.44308252e-01  1.00000000e+00  1.00000000e+00
  1.00000000e+00  1.00000000e+00  1.00000000e+00  1.83470016e-03  1.40373012e-02
  6.88426061e-02  2.32184421e-01  4.67941342e-01  3.62312032e-01 -1.19332409e-01
 -1.60854212e-01  1.14345648e+00  6.89990956e-02  3.16423980e-01  7.44308252e-01
  1.00000000e+00  1.00000000e+00  1.00000000e+00  1.00000000e+00  1.00000000e+00
  1.83470016e-03  1.40373012e-02  6.88426061e-02  2.32184421e-01  4.67941342e-01
  3.62312032e-01 -1.19332409e-01 -1.60854212e-01  1.14345648e+00  6.89990956e-02
  3.16423980e-01  7.44308252e-01  1.00000000e+00  1.00000000e+00  1.00000000e+00
  1.00000000e+00  1.00000000e+00  3.34945995e-02  2.34726947e-01  8.13757318e-01
  1.00000000e+00  3.34945995e-02  2.34726947e-01  8.13757318e-01  1.00000000e+00
  3.34945995e-02  2.34726947e-01  8.13757318e-01  1.00000000e+00  1.83109981e-03
  1.39500985e-02  6.84450927e-02  2.32714275e-01  4.70192950e-01  3.58520862e-01
 -1.10777504e-01 -1.48026305e-01  1.13076704e+00  7.08742995e-02  3.39752798e-01
  7.27158595e-01  1.00000000e+00  1.00000000e+00  1.00000000e+00  1.00000000e+00
  1.00000000e+00  1.83470016e-03  1.40373012e-02  6.88426061e-02  2.32184421e-01
  4.67941342e-01  3.62312032e-01 -1.19332409e-01 -1.60854212e-01  1.14345648e+00
  6.89990956e-02  3.16423980e-01  7.44308252e-01  1.00000000e+00  1.00000000e+00
  1.00000000e+00  1.00000000e+00  1.00000000e+00  1.83109981e-03  1.39500985e-02
  6.84450927e-02  2.32714275e-01  4.70192950e-01  3.58520862e-01 -1.10777504e-01
 -1.48026305e-01  1.13076704e+00  7.08742995e-02  3.39752798e-01  7.27158595e-01
  1.00000000e+00  1.00000000e+00  1.00000000e+00  1.00000000e+00  1.00000000e+00
  3.34945995e-02  2.34726947e-01  8.13757318e-01  1.00000000e+00  3.34945995e-02
  2.34726947e-01  8.13757318e-01  1.00000000e+00  1.83470016e-03  1.40373012e-02
  6.88426061e-02  2.32184421e-01  4.67941342e-01  3.62312032e-01 -1.19332409e-01
 -1.60854212e-01  1.14345648e+00  6.89990956e-02  3.16423980e-01  7.44308252e-01
  1.00000000e+00  1.00000000e+00  1.00000000e+00  1.00000000e+00  1.00000000e+00
  1.83470016e-03  1.40373012e-02  6.88426061e-02  2.32184421e-01  4.67941342e-01
  3.62312032e-01 -1.19332409e-01 -1.60854212e-01  1.14345648e+00  6.89990956e-02
  3.16423980e-01  7.44308252e-01  1.00000000e+00  1.00000000e+00  1.00000000e+00
  1.00000000e+00  1.00000000e+00  3.34945995e-02  2.34726947e-01  8.13757318e-01
  1.00000000e+00  3.34945995e-02  2.34726947e-01  8.13757318e-01  1.00000000e+00
  1.83109981e-03  1.39500985e-02  6.84450927e-02  2.32714275e-01  4.70192950e-01
  3.58520862e-01 -1.10777504e-01 -1.48026305e-01  1.13076704e+00  7.08742995e-02
  3.39752798e-01  7.27158595e-01  1.00000000e+00  1.00000000e+00  1.00000000e+00
  1.00000000e+00  1.00000000e+00  1.83470016e-03  1.40373012e-02  6.88426061e-02
  2.32184421e-01  4.67941342e-01  3.62312032e-01 -1.19332409e-01 -1.60854212e-01
  1.14345648e+00  6.89990956e-02  3.16423980e-01  7.44308252e-01  1.00000000e+00
  1.00000000e+00  1.00000000e+00  1.00000000e+00  1.00000000e+00  3.34945995e-02
  2.34726947e-01  8.13757318e-01  1.00000000e+00  3.34945995e-02  2.34726947e-01
  8.13757318e-01  1.00000000e+00  3.34945995e-02  2.34726947e-01  8.13757318e-01
  1.00000000e+00
Coordinates of each shell                  R   N=         372
 -8.37913927e-01  7.73840734e-01  1.57757696e+00 -8.37913927e-01  7.73840734e-01
  1.57757696e+00 -8.37913927e-01  7.73840734e-01  1.57757696e+00 -8.37913927e-01
  7.73840734e-01  1.57757696e+00 -8.37913927e-01  7.73840734e-01  1.57757696e+00
 -8.37913927e-01  7.73840734e-01  1.57757696e+00 -8.37913927e-01  7.73840734e-01
  1.57757696e+00 -8.37913927e-01  7.73840734e-01  1.57757696e+00  1.43674022e+00
  2.10467875e+00  1.79178993e+00  1.43674022e+00  2.10467875e+00  1.79178993e+00
  1.43674022e+00  2.10467875e+00  1.79178993e+00  1.43674022e+00  2.10467875e+00
  1.79178993e+00  1.43674022e+00  2.10467875e+00  1.79178993e+00  1.43674022e+00
  2.10467875e+00  1.79178993e+00  1.43674022e+00  2.10467875e+00  1.79178993e+00
  1.43674022e+00  2.10467875e+00  1.79178993e+00  2.97318602e+00  2.63042796e+00
 -3.15777557e-01  2.97318602e+00  2.63042796e+00 -3.15777557e-01  2.97318602e+00
  2.63042796e+00 -3.15777557e-01  2.97318602e+00  2.63042796e+00 -3.15777557e-01
  2.97318602e+00  2.63042796e+00 -3.15777557e-01  2.97318602e+00  2.63042796e+00
 -3.15777557e-01  2.97318602e+00  2.63042796e+00 -3.15777557e-01  2.97318602e+00
  2.63042796e+00 -3.15777557e-01  2.13491653e+00  1.75724657e+00 -2.62633347e+00
  2.13491653e+00  1.75724657e+00 -2.62633347e+00  2.13491653e+00  1.75724657e+00
 -2.62633347e+00  2.13491653e+00  1.75724657e+00 -2.62633347e+00  2.13491653e+00
  1.75724657e+00 -2.62633347e+00  2.13491653e+00  1.75724657e+00 -2.62633347e+00
  2.13491653e+00  1.75724657e+00 -2.62633347e+00  2.13491653e+00  1.75724657e+00
 -2.62633347e+00 -1.29764109e-01  4.34969911e-01 -2.86459733e+00 -1.29764109e-01
  4.34969911e-01 -2.86459733e+00 -1.29764109e-01  4.34969911e-01 -2.86459733e+00
 -1.29764109e-01  4.34969911e-01 -2.86459733e+00 -1.29764109e-01  4.34969911e-01
 -2.86459733e+00 -1.29764109e-01  4.34969911e-01 -2.86459733e+00 -1.29764109e-01
  4.34969911e-01 -2.86459733e+00 -1.29764109e-01  4.34969911e-01 -2.86459733e+00
 -1.65833071e+00 -7.77691893e-02 -8.15309919e-01 -1.65833071e+00 -7.77691893e-02
 -8.15309919e-01 -1.65833071e+00 -7.77691893e-02 -8.15309919e-01 -1.65833071e+00
 -7.77691893e-02 -8.15309919e-01 -1.65833071e+00 -7.77691893e-02 -8.15309919e-01
 -1.65833071e+00 -7.77691893e-02 -8.15309919e-01 -1.65833071e+00 -7.77691893e-02
 -8.15309919e-01 -1.65833071e+00 -7.77691893e-02 -8.15309919e-01  2.05525036e+00
  2.74230871e+00  3.64408738e+00  2.05525036e+00  2.74230871e+00  3.64408738e+00
 -3.41804845e+00 -1.10949895e+00 -1.04224801e+00 -3.41804845e+00 -1.10949895e+00
 -1.04224801e+00  4.72899391e+00  3.67425976e+00 -1.35539333e-01  4.72899391e+00
  3.67425976e+00 -1.35539333e-01 -5.49402548e-01 -1.18152560e-01 -5.37647861e+00
 -5.49402548e-01 -1.18152560e-01 -5.37647861e+00 -5.49402548e-01 -1.18152560e-01
 -5.37647861e+00 -5.49402548e-01 -1.18152560e-01 -5.37647861e+00 -5.49402548e-01
 -1.18152560e-01 -5.37647861e+00 -5.49402548e-01 -1.18152560e-01 -5.37647861e+00
 -5.49402548e-01 -1.18152560e-01 -5.37647861e+00 -5.49402548e-01 -1.18152560e-01
 -5.37647861e+00  1.79990641e+00  4.30365868e-01 -6.61000062e+00  1.79990641e+00
  4.30365868e-01 -6.61000062e+00  1.79990641e+00  4.30365868e-01 -6.61000062e+00
  1.79990641e+00  4.30365868e-01 -6.61000062e+00  1.79990641e+00  4.30365868e-01
 -6.61000062e+00  1.79990641e+00  4.30365868e-01 -6.61000062e+00  1.79990641e+00
  4.30365868e-01 -6.61000062e+00  1.79990641e+00  4.30365868e-01 -6.61000062e+00
  3.20525806e+00  2.07626973e+00 -4.98170576e+00  3.20525806e+00  2.07626973e+00
 -4.98170576e+00  3.20525806e+00  2.07626973e+00 -4.98170576e+00  3.20525806e+00
  2.07626973e+00 -4.98170576e+00  3.20525806e+00  2.07626973e+00 -4.98170576e+00
  3.20525806e+00  2.07626973e+00 -4.98170576e+00  3.20525806e+00  2.07626973e+00
 -4.98170576e+00  3.20525806e+00  2.07626973e+00 -4.98170576e+00  1.42814307e+00
  1.38767667e+00 -8.39782901e+00  1.42814307e+00  1.38767667e+00 -8.39782901e+00
  2.85978498e+00 -1.33628337e+00 -6.88287283e+00  2.85978498e+00 -1.33628337e+00
 -6.88287283e+00 -2.39756631e+00  1.90154281e-01  3.89264346e+00 -2.39756631e+00
  1.90154281e-01  3.89264346e+00 -2.39756631e+00  1.90154281e-01  3.89264346e+00
 -2.39756631e+00  1.90154281e-01  3.89264346e+00 -2.39756631e+00  1.90154281e-01
  3.89264346e+00 -2.39756631e+00  1.90154281e-01  3.89264346e+00 -2.39756631e+00
  1.90154281e-01  3.89264346e+00 -2.39756631e+00  1.90154281e-01  3.89264346e+00
 -1.91446621e+00 -2.41094159e+00  5.08921954e+00 -1.91446621e+00 -2.41094159e+00
  5.08921954e+00 -1.91446621e+00 -2.41094159e+00  5.08921954e+00 -1.91446621e+00
 -2.41094159e+00  5.08921954e+00 -1.91446621e+00 -2.41094159e+00  5.08921954e+00
 -1.91446621e+00 -2.41094159e+00  5.08921954e+00 -1.91446621e+00 -2.41094159e+00
  5.08921954e+00 -1.91446621e+00 -2.41094159e+00  5.08921954e+00 -4.43036902e+00
  3.20832595e-01  3.47878207e+00 -4.43036902e+00  3.20832595e-01  3.47878207e+00
 -2.05471365e+00  1.60144909e+00  5.37965240e+00 -2.05471365e+00  1.60144909e+00
  5.37965240e+00 -2.41054003e-01 -3.81311060e+00  4.37381121e+00 -2.41054003e-01
 -3.81311060e+00  4.37381121e+00 -2.41054003e-01 -3.81311060e+00  4.37381121e+00
 -2.41054003e-01 -3.81311060e+00  4.37381121e+00 -2.41054003e-01 -3.81311060e+00
  4.37381121e+00 -2.41054003e-01 -3.81311060e+00  4.37381121e+00 -2.41054003e-01
 -3.81311060e+00  4.37381121e+00 -2.41054003e-01 -3.81311060e+00  4.37381121e+00
 -3.67938308e+00 -3.13594467e+00  7.23614559e+00 -3.67938308e+00 -3.13594467e+00
  7.23614559e+00 -3.67938308e+00 -3.13594467e+00  7.23614559e+00 -3.67938308e+00
 -3.13594467e+00  7.23614559e+00 -3.67938308e+00 -3.13594467e+00  7.23614559e+00
 -3.67938308e+00 -3.13594467e+00  7.23614559e+00 -3.67938308e+00 -3.13594467e+00
  7.23614559e+00 -3.67938308e+00 -3.13594467e+00  7.23614559e+00 -5.55422118e+00
 -3.58649333e+00  6.46710444e+00 -5.55422118e+00 -3.58649333e+00  6.46710444e+00
 -3.93232753e+00 -1.57162870e+00  8.57186990e+00 -3.93232753e+00 -1.57162870e+00
  8.57186990e+00 -2.94679079e+00 -4.79558844e+00  8.22119565e+00 -2.94679079e+00
 -4.79558844e+00  8.22119565e+00
Total Energy                               R     -6.127559382056627e+02
Alpha Orbital Energies                     R   N=         267
 -1.92026853e+01 -1.92024388e+01 -1.91542139e+01 -1.03112937e+01 -1.02901826e+01
 -1.02559280e+01 -1.02548198e+01 -1.02118928e+01 -1.02086868e+01 -1.02034865e+01
 -1.02026500e+01 -1.02014234e+01 -1.01982310e+01 -1.13328739e+00 -1.05207586e+00
 -1.04147240e+00 -8.69929825e-01 -8.01048722e-01 -7.62975157e-01 -7.59569942e-01
 -7.17460189e-01 -6.72240260e-01 -6.30090325e-01 -6.17377580e-01 -5.45882612e-01
 -5.31194578e-01 -5.27453958e-01 -5.21398262e-01 -4.92259986e-01 -4.73634186e-01
 -4.71360563e-01 -4.52839781e-01 -4.48557213e-01 -4.37237797e-01 -4.17243898e-01
 -4.07609661e-01 -3.97524392e-01 -3.94943793e-01 -3.94044116e-01 -3.75594528e-01
 -3.64453600e-01 -3.60576358e-01 -3.54902054e-01 -3.17517766e-01 -2.61395421e-01
 -2.51616428e-01 -2.15335639e-01 -2.93011618e-02 -1.64783407e-02 -8.14278144e-03
  6.53529835e-05  1.21825421e-02  1.84482419e-02  2.57038026e-02  3.30816248e-02
  3.48024666e-02  3.88645042e-02  4.39273323e-02  4.85507295e-02  6.03338264e-02
  6.51773039e-02  6.90307095e-02  7.32020770e-02  8.50463161e-02  8.56782959e-02
  9.36934696e-02  1.02261778e-01  1.07585535e-01  1.17323522e-01  1.25278928e-01
  1.25892274e-01  1.29761743e-01  1.36327662e-01  1.38193961e-01  1.48567876e-01
  1.50218657e-01  1.54631283e-01  1.60543480e-01  1.70282177e-01  1.72299043e-01
  1.74881787e-01  1.84830457e-01  1.90078838e-01  1.95976791e-01  1.99424915e-01
  2.00978358e-01  2.07568900e-01  2.13719907e-01  2.18897236e-01  2.24206964e-01
  2.26262034e-01  2.30707540e-01  2.34391724e-01  2.35981104e-01  2.45501953e-01
  2.50812624e-01  2.55276568e-01  2.63458535e-01  2.71115829e-01  2.81664431e-01
  2.85865604e-01  2.89267079e-01  2.95426092e-01  2.99861249e-01  3.02776533e-01
  3.07363421e-01  3.15966563e-01  3.20460332e-01  3.26481154e-01  3.27477807e-01
  3.31517478e-01  3.45921054e-01  3.47373388e-01  3.55244536e-01  3.68656394e-01
  3.75217359e-01  3.83772794e-01  3.88250197e-01  4.07449564e-01  4.16927584e-01
  4.33317270e-01  4.47088686e-01  4.58170450e-01  4.70164328e-01  5.11048745e-01
  5.77514313e-01  6.19300300e-01  6.46027492e-01  6.53319614e-01  6.56440390e-01
  6.67937535e-01  6.76619824e-01  6.81111434e-01  6.98923924e-01  7.13427425e-01
  7.16625014e-01  7.26252131e-01  7.47558619e-01  7.53899059e-01  7.61430886e-01
  7.68345200e-01  7.84815578e-01  7.95096654e-01  8.05788804e-01  8.28020391e-01
  8.36592540e-01  8.59300205e-01  8.72304930e-01  8.80207099e-01  8.95287102e-01
  9.05513859e-01  9.16358728e-01  9.36558531e-01  9.48644771e-01  9.62075855e-01
  9.77700569e-01  1.00753652e+00  1.01158528e+00  1.02027142e+00  1.05981330e+00
  1.08530179e+00  1.09303990e+00  1.11075951e+00  1.11626029e+00  1.12717111e+00
  1.15940292e+00  1.17319890e+00  1.18435331e+00  1.20077277e+00  1.21766988e+00
  1.23258909e+00  1.23386829e+00  1.25357485e+00  1.25970051e+00  1.27706108e+00
  1.30535775e+00  1.31461504e+00  1.32995694e+00  1.35345718e+00  1.36095365e+00
  1.37814475e+00  1.39721639e+00  1.41444635e+00  1.42167034e+00  1.43292382e+00
  1.44716667e+00  1.45351426e+00  1.46740493e+00  1.48534234e+00  1.49178636e+00
  1.56737268e+00  1.57618993e+00  1.60808300e+00  1.62823963e+00  1.66541152e+00
  1.72815548e+00  1.75111073e+00  1.79220817e+00  1.80572265e+00  1.81168411e+00
  1.83029179e+00  1.83904103e+00  1.86034804e+00  1.87942079e+00  1.88142869e+00
  1.90075993e+00  1.91958933e+00  1.94102031e+00  1.96230004e+00  1.96580000e+00
  1.98861363e+00  1.99198348e+00  2.00153184e+00  2.02723700e+00  2.04299163e+00
  2.08170464e+00  2.10573408e+00  2.11623744e+00  2.13259843e+00  2.16403364e+00
  2.18661718e+00  2.20347530e+00  2.21946479e+00  2.25234778e+00  2.29745938e+00
  2.30156649e+00  2.31826020e+00  2.32832583e+00  2.34678665e+00  2.36623910e+00
  2.42215023e+00  2.44214590e+00  2.46870965e+00  2.54183014e+00  2.55978253e+00
  2.57399842e+00  2.58758396e+00  2.60482349e+00  2.65245295e+00  2.67164331e+00
  2.69004144e+00  2.73310112e+00  2.73907719e+00  2.83499370e+00  2.86505935e+00
  2.88972220e+00  2.91066937e+00  2.93456307e+00  3.01160657e+00  3.07453272e+00
  3.08587337e+00  3.13746733e+00  3.24189441e+00  3.46889026e+00  4.18589506e+00
  4.20282350e+00  4.26798010e+00  4.29548365e+00  4.33356489e+00  4.37251318e+00
  4.39107387e+00  4.45762124e+00  4.47099703e+00  4.53573921e+00  4.59053990e+00
  4.62097884e+00  5.01356089e+00
Alpha MO coefficients                      R   N=       71289
 -3.43853271e-06 -1.22231951e-05 -2.08363631e-05 -5.54260769e-06  1.93620778e-05
 -5.33566943e-05  5.26543700e-04  2.81303864e-04 -1.19495011e-04 -4.34700726e-06
 -7.65572870e-06 -8.21196404e-06  9.44433879e-07 -6.53324032e-06 -6.20344613e-06
  2.87960106e-03  9.45121765e-03  5.46996977e-03  1.40585944e-04  2.34026471e-07
  3.32156575e-06  7.99028108e-06  8.70421087e-06  5.60052215e-06 -3.61117951e-04
  2.16161283e-04  1.16000904e-04 -4.55439577e-06 -2.92840822e-06 -4.57787824e-06
  3.32489653e-06 -2.78490865e-06 -9.45220603e-06 -3.50372978e-06 -1.02438990e-02
  7.12702429e-03  4.29284981e-03 -1.33647289e-03 -7.18861114e-06 -1.41188994e-05
  2.81693178e-06  1.03433252e-05  3.27155356e-05  3.39560334e-04  3.54674010e-05
 -1.29695604e-05 -1.66381717e-04 -9.51791964e-06 -1.37086449e-05 -5.39498454e-05
 -2.57334373e-07 -9.42619430e-06 -1.56233059e-05  2.19290506e-02  4.75775365e-04
 -2.03769437e-03 -1.12825044e-02 -1.37152866e-05 -1.96918845e-04 -3.64554482e-05
 -2.43040686e-05 -1.23343961e-05  1.44309472e-03 -4.73524464e-04 -3.69512197e-04
 -5.27361825e-04  5.60140503e-05  2.47515372e-05  1.00180831e-04  5.23892389e-05
  6.09726508e-05  5.50599787e-05  2.16498228e-03 -1.36212111e-02 -9.54642302e-03
 -1.35557433e-02  5.84443150e-05  1.12001391e-05  7.08808286e-05  8.96322696e-05
  3.92780168e-04 -2.00059189e-04 -1.49488499e-03 -6.53218613e-04  6.84883566e-04
  8.86600589e-05  1.00679824e-04 -2.61761735e-04 -3.78845220e-05 -5.15419743e-05
 -9.66978576e-05 -4.40885019e-02 -3.89810102e-03 -3.42280308e-03 -1.00524965e-03
  1.26649331e-05  3.53161652e-05  1.73928536e-08  7.39222906e-06  9.05017453e-06
 -1.26562940e-03 -4.52604763e-04 -1.26263482e-04  1.03577269e-03  2.32358965e-05
  1.36017963e-05  2.11362099e-05  5.82426528e-06  1.20688236e-05  1.11673925e-05
  2.11152088e-02  1.45193882e-03  1.79055104e-03  1.38863129e-03 -9.29944641e-06
  1.08278234e-04  4.77210240e-05 -2.94311088e-04 -6.62656194e-06 -6.90563820e-05
 -9.92551190e-01 -2.53684008e-02 -9.81015054e-04 -3.93784426e-04 -5.05444451e-04
 -1.49284639e-02  1.14549780e-03  4.47369704e-04  3.42720171e-04  8.82815167e-03
  8.59946486e-03  8.83384874e-03  9.49232648e-05 -2.56817823e-05  5.41424008e-05
  8.65184908e-03 -2.08916777e-04  7.72862591e-05  3.54946709e-04  2.14543125e-05
 -2.02684433e-05  3.00439588e-04  5.09096023e-05 -2.02340796e-04  6.54216428e-04