Generated by Psi4
     FORCE                           RHF                       TESTBAS
Number of atoms                            I               25
Charge                                     I                0
Multiplicity                               I                1
Number of electrons                        I               96
Number of alpha electrons                  I               48
Number of beta electrons                   I               48
Number of basis functions                  I              271
Number of independent functions            I              271
Atomic numbers                             I   N=          25
           6           6           6           7           6           6
           6           6           6           1           1           1
           9           6           1           1           1           1
           6           1           1           1           1           8
           1
Nuclear charges                            R   N=          25
  6.00000000e+00  6.00000000e+00  6.00000000e+00  7.00000000e+00  6.00000000e+00
  6.00000000e+00  6.00000000e+00  6.00000000e+00  6.00000000e+00  1.00000000e+00
  1.00000000e+00  1.00000000e+00  9.00000000e+00  6.00000000e+00  1.00000000e+00
  1.00000000e+00  1.00000000e+00  1.00000000e+00  6.00000000e+00  1.00000000e+00
  1.00000000e+00  1.00000000e+00  1.00000000e+00  8.00000000e+00  1.00000000e+00
Current cartesian coordinates              R   N=          75
  9.91223479e-02 -7.73140226e-03 -5.11582436e-01 -2.55843824e+00  6.60176352e-01
  2.46294784e-01 -3.20373038e+00  1.89715505e+00  2.81143284e+00 -2.05387352e+00
  6.19295343e-01  4.98118436e+00  2.19498501e+00  1.83051451e-01  1.10993681e+00
  4.60813915e+00 -4.40449121e-01  2.34745694e-01  4.97327485e+00 -1.25839736e+00
 -2.24705517e+00  2.86876532e+00 -1.43997582e+00 -3.81553628e+00  4.54414148e-01
 -8.38585875e-01 -3.01343576e+00  1.91008013e+00  7.55875658e-01  3.05400449e+00
 -1.14624328e+00 -9.94879991e-01 -4.28370598e+00  6.21971638e+00 -2.96249592e-01
  1.49910459e+00  3.21189324e+00 -2.24146116e+00 -6.23405263e+00 -2.43813735e+00
  4.70141340e+00  2.76979670e+00 -5.28613912e+00  1.79648535e+00  2.88140222e+00
 -3.85488926e-01  4.93058282e+00  2.65868713e+00 -3.10681587e+00  5.63877960e+00
  4.49489829e+00 -3.30138483e+00  5.66525115e+00  1.15561284e+00 -3.07997881e+00
 -1.90401534e+00  5.47009011e+00 -2.29625286e+00  1.72445036e+00  6.53812681e+00
 -2.54167270e+00 -3.18719777e+00  3.93648380e+00 -5.16047414e+00 -1.94054836e+00
  5.63293826e+00 -2.26290560e+00 -2.64197719e+00  7.22112774e+00 -4.29328177e+00
  3.44306748e-01 -1.25297785e+00  6.82934750e+00 -1.75316330e+00 -2.96750376e+00
Integer atomic weights                     I   N=          25
          12          12          12          14          12          12
          12          12          12           1           1           1
          18          12           1           1           1           1
          12           1           1           1           1          15
           1
Real atomic weights                        R   N=          25
  1.20000000e+01  1.20000000e+01  1.20000000e+01  1.40030740e+01  1.20000000e+01
  1.20000000e+01  1.20000000e+01  1.20000000e+01  1.20000000e+01  1.00782503e+00
  1.00782503e+00  1.00782503e+00  1.89984032e+01  1.20000000e+01  1.00782503e+00
  1.00782503e+00  1.00782503e+00  1.00782503e+00  1.20000000e+01  1.00782503e+00
  1.00782503e+00  1.00782503e+00  1.00782503e+00  1.59949146e+01  1.00782503e+00
Number of primitive shells                 I              269
Number of contracted shells                I              128
Pure/Cartesian d shells                    I                1
Pure/Cartesian f shells                    I                1
Highest angular momentum                   I                2
Largest degree of contraction              I                6
Shell types                                I   N=         128
           0           0           1           0           1           2
           0           1           0           0           1           0
           1           2           0           1           0           0
           1           0           1           2           0           1
           0           0           1           0           1           2
           0           1           0           0           1           0
           1           2           0           1           0           0
           1           0           1           2           0           1
           0           0           1           0           1           2
           0           1           0           0           1           0
           1           2           0           1           0           0
           1           0           1           2           0           1
           0           0           0           0           0           0
           0           0           1           0           1           2
           0           1           0           0           1           0
           1           2           0           1           0           0
           0           0           0           0           0           0
           0           0           1           0           1           2
           0           1           0           0           0           0
           0           0           0           0           0           0
           1           0           1           2           0           1
           0           0
Number of primitives per shell             I   N=         128
           6           3           3           1           1           1
           1           1           6           3           3           1
           1           1           1           1           6           3
           3           1           1           1           1           1
           6           3           3           1           1           1
           1           1           6           3           3           1
           1           1           1           1           6           3
           3           1           1           1           1           1
           6           3           3           1           1           1
           1           1           6           3           3           1
           1           1           1           1           6           3
           3           1           1           1           1           1
           3           1           3           1           3           1
           6           3           3           1           1           1
           1           1           6           3           3           1
           1           1           1           1           3           1
           3           1           3           1           3           1
           6           3           3           1           1           1
           1           1           3           1           3           1
           3           1           3           1           6           3
           3           1           1           1           1           1
           3           1
Shell to atom map                          I   N=         128
           1           1           1           1           1           1
           1           1           2           2           2           2
           2           2           2           2           3           3
           3           3           3           3           3           3
           4           4           4           4           4           4
           4           4           5           5           5           5
           5           5           5           5           6           6
           6           6           6           6           6           6
           7           7           7           7           7           7
           7           7           8           8           8           8
           8           8           8           8           9           9
           9           9           9           9           9           9
          10          10          11          11          12          12
          13          13          13          13          13          13
          13          13          14          14          14          14
          14          14          14          14          15          15
          16          16          17          17          18          18
          19          19          19          19          19          19
          19          19          20          20          21          21
          22          22          23          23          24          24
          24          24          24          24          24          24
          25          25
Primitive exponents                        R   N=         269
  3.04752490e+03  4.57369510e+02  1.03948690e+02  2.92101550e+01  9.28666300e+00
  3.16392700e+00  7.86827240e+00  1.88128850e+00  5.44249300e-01  7.86827240e+00
  1.88128850e+00  5.44249300e-01  1.68714400e-01  1.68714400e-01  8.00000000e-01
  4.38000000e-02  4.38000000e-02  3.04752490e+03  4.57369510e+02  1.03948690e+02
  2.92101550e+01  9.28666300e+00  3.16392700e+00  7.86827240e+00  1.88128850e+00
  5.44249300e-01  7.86827240e+00  1.88128850e+00  5.44249300e-01  1.68714400e-01
  1.68714400e-01  8.00000000e-01  4.38000000e-02  4.38000000e-02  3.04752490e+03
  4.57369510e+02  1.03948690e+02  2.92101550e+01  9.28666300e+00  3.16392700e+00
  7.86827240e+00  1.88128850e+00  5.44249300e-01  7.86827240e+00  1.88128850e+00
  5.44249300e-01  1.68714400e-01  1.68714400e-01  8.00000000e-01  4.38000000e-02
  4.38000000e-02  4.17351100e+03  6.27457900e+02  1.42902100e+02  4.02343300e+01
  1.28202100e+01  4.39043700e+00  1.16263580e+01  2.71628000e+00  7.72218000e-01
  1.16263580e+01  2.71628000e+00  7.72218000e-01  2.12031300e-01  2.12031300e-01
  8.00000000e-01  6.39000000e-02  6.39000000e-02  3.04752490e+03  4.57369510e+02
  1.03948690e+02  2.92101550e+01  9.28666300e+00  3.16392700e+00  7.86827240e+00
  1.88128850e+00  5.44249300e-01  7.86827240e+00  1.88128850e+00  5.44249300e-01
  1.68714400e-01  1.68714400e-01  8.00000000e-01  4.38000000e-02  4.38000000e-02
  3.04752490e+03  4.57369510e+02  1.03948690e+02  2.92101550e+01  9.28666300e+00
  3.16392700e+00  7.86827240e+00  1.88128850e+00  5.44249300e-01  7.86827240e+00
  1.88128850e+00  5.44249300e-01  1.68714400e-01  1.68714400e-01  8.00000000e-01
  4.38000000e-02  4.38000000e-02  3.04752490e+03  4.57369510e+02  1.03948690e+02
  2.92101550e+01  9.28666300e+00  3.16392700e+00  7.86827240e+00  1.88128850e+00
  5.44249300e-01  7.86827240e+00  1.88128850e+00  5.44249300e-01  1.68714400e-01
  1.68714400e-01  8.00000000e-01  4.38000000e-02  4.38000000e-02  3.04752490e+03
  4.57369510e+02  1.03948690e+02  2.92101550e+01  9.28666300e+00  3.16392700e+00
  7.86827240e+00  1.88128850e+00  5.44249300e-01  7.86827240e+00  1.88128850e+00
  5.44249300e-01  1.68714400e-01  1.68714400e-01  8.00000000e-01  4.38000000e-02
  4.38000000e-02  3.04752490e+03  4.57369510e+02  1.03948690e+02  2.92101550e+01
  9.28666300e+00  3.16392700e+00  7.86827240e+00  1.88128850e+00  5.44249300e-01
  7.86827240e+00  1.88128850e+00  5.44249300e-01  1.68714400e-01  1.68714400e-01
  8.00000000e-01  4.38000000e-02  4.38000000e-02  1.87311370e+01  2.82539370e+00
  6.40121700e-01  1.61277800e-01  1.87311370e+01  2.82539370e+00  6.40121700e-01
  1.61277800e-01  1.87311370e+01  2.82539370e+00  6.40121700e-01  1.61277800e-01
  7.00171309e+03  1.05136609e+03  2.39285690e+02  6.73974453e+01  2.15199573e+01
  7.40310130e+00  2.08479528e+01  4.80830834e+00  1.34406986e+00  2.08479528e+01
  4.80830834e+00  1.34406986e+00  3.58151393e-01  3.58151393e-01  8.00000000e-01
  1.07600000e-01  1.07600000e-01  3.04752490e+03  4.57369510e+02  1.03948690e+02
  2.92101550e+01  9.28666300e+00  3.16392700e+00  7.86827240e+00  1.88128850e+00
  5.44249300e-01  7.86827240e+00  1.88128850e+00  5.44249300e-01  1.68714400e-01
  1.68714400e-01  8.00000000e-01  4.38000000e-02  4.38000000e-02  1.87311370e+01
  2.82539370e+00  6.40121700e-01  1.61277800e-01  1.87311370e+01  2.82539370e+00
  6.40121700e-01  1.61277800e-01  1.87311370e+01  2.82539370e+00  6.40121700e-01
  1.61277800e-01  1.87311370e+01  2.82539370e+00  6.40121700e-01  1.61277800e-01
  3.04752490e+03  4.57369510e+02  1.03948690e+02  2.92101550e+01  9.28666300e+00
  3.16392700e+00  7.86827240e+00  1.88128850e+00  5.44249300e-01  7.86827240e+00
  1.88128850e+00  5.44249300e-01  1.68714400e-01  1.68714400e-01  8.00000000e-01
  4.38000000e-02  4.38000000e-02  1.87311370e+01  2.82539370e+00  6.40121700e-01
  1.61277800e-01  1.87311370e+01  2.82539370e+00  6.40121700e-01  1.61277800e-01
  1.87311370e+01  2.82539370e+00  6.40121700e-01  1.61277800e-01  1.87311370e+01
  2.82539370e+00  6.40121700e-01  1.61277800e-01  5.48467170e+03  8.25234950e+02
  1.88046960e+02  5.29645000e+01  1.68975700e+01  5.79963530e+00  1.55396160e+01
  3.59993360e+00  1.01376180e+00  1.55396160e+01  3.59993360e+00  1.01376180e+00
  2.70005800e-01  2.70005800e-01  8.00000000e-01  8.45000000e-02  8.45000000e-02
  1.87311370e+01  2.82539370e+00  6.40121700e-01  1.61277800e-01
Contraction coefficients                   R   N=         269
  1.83470016e-03  1.40373012e-02  6.88426061e-02  2.32184421e-01  4.67941342e-01
  3.62312032e-01 -1.19332409e-01 -1.60854212e-01  1.14345648e+00  6.89990956e-02
  3.16423980e-01  7.44308252e-01  1.00000000e+00  1.00000000e+00  1.00000000e+00
  1.00000000e+00  1.00000000e+00  1.83470016e-03  1.40373012e-02  6.88426061e-02
  2.32184421e-01  4.67941342e-01  3.62312032e-01 -1.19332409e-01 -1.60854212e-01
  1.14345648e+00  6.89990956e-02  3.16423980e-01  7.44308252e-01  1.00000000e+00
  1.00000000e+00  1.00000000e+00  1.00000000e+00  1.00000000e+00  1.83470016e-03
  1.40373012e-02  6.88426061e-02  2.32184421e-01  4.67941342e-01  3.62312032e-01
 -1.19332409e-01 -1.60854212e-01  1.14345648e+00  6.89990956e-02  3.16423980e-01
  7.44308252e-01  1.00000000e+00  1.00000000e+00  1.00000000e+00  1.00000000e+00
  1.00000000e+00  1.83479944e-03  1.39949958e-02  6.85869792e-02  2.32240930e-01
  4.69069858e-01  3.60454891e-01 -1.14961023e-01 -1.69118034e-01  1.14585223e+00
  6.75800232e-02  3.23907111e-01  7.40895255e-01  1.00000000e+00  1.00000000e+00
  1.00000000e+00  1.00000000e+00  1.00000000e+00  1.83470016e-03  1.40373012e-02
  6.88426061e-02  2.32184421e-01  4.67941342e-01  3.62312032e-01 -1.19332409e-01
 -1.60854212e-01  1.14345648e+00  6.89990956e-02  3.16423980e-01  7.44308252e-01
  1.00000000e+00  1.00000000e+00  1.00000000e+00  1.00000000e+00  1.00000000e+00
  1.83470016e-03  1.40373012e-02  6.88426061e-02  2.32184421e-01  4.67941342e-01
  3.62312032e-01 -1.19332409e-01 -1.60854212e-01  1.14345648e+00  6.89990956e-02
  3.16423980e-01  7.44308252e-01  1.00000000e+00  1.00000000e+00  1.00000000e+00
  1.00000000e+00  1.00000000e+00  1.83470016e-03  1.40373012e-02  6.88426061e-02
  2.32184421e-01  4.67941342e-01  3.62312032e-01 -1.19332409e-01 -1.60854212e-01
  1.14345648e+00  6.89990956e-02  3.16423980e-01  7.44308252e-01  1.00000000e+00
  1.00000000e+00  1.00000000e+00  1.00000000e+00  1.00000000e+00  1.83470016e-03
  1.40373012e-02  6.88426061e-02  2.32184421e-01  4.67941342e-01  3.62312032e-01
 -1.19332409e-01 -1.60854212e-01  1.14345648e+00  6.89990956e-02  3.16423980e-01
  7.44308252e-01  1.00000000e+00  1.00000000e+00  1.00000000e+00  1.00000000e+00
  1.00000000e+00  1.83470016e-03  1.40373012e-02  6.88426061e-02  2.32184421e-01
  4.67941342e-01  3.62312032e-01 -1.19332409e-01 -1.60854212e-01  1.14345648e+00
  6.89990956e-02  3.16423980e-01  7.44308252e-01  1.00000000e+00  1.00000000e+00
  1.00000000e+00  1.00000000e+00  1.00000000e+00  3.34945995e-02  2.34726947e-01
  8.13757318e-01  1.00000000e+00  3.34945995e-02  2.34726947e-01  8.13757318e-01
  1.00000000e+00  3.34945995e-02  2.34726947e-01  8.13757318e-01  1.00000000e+00
  1.81961690e-03  1.39160796e-02  6.84053245e-02  2.33185760e-01  4.71267439e-01
  3.56618546e-01 -1.08506975e-01 -1.46451658e-01  1.12868858e+00  7.16287242e-02
  3.45912103e-01  7.22469956e-01  1.00000000e+00  1.00000000e+00  1.00000000e+00
  1.00000000e+00  1.00000000e+00  1.83470016e-03  1.40373012e-02  6.88426061e-02
  2.32184421e-01  4.67941342e-01  3.62312032e-01 -1.19332409e-01 -1.60854212e-01
  1.14345648e+00  6.89990956e-02  3.16423980e-01  7.44308252e-01  1.00000000e+00
  1.00000000e+00  1.00000000e+00  1.00000000e+00  1.00000000e+00  3.34945995e-02
  2.34726947e-01  8.13757318e-01  1.00000000e+00  3.34945995e-02  2.34726947e-01
  8.13757318e-01  1.00000000e+00  3.34945995e-02  2.34726947e-01  8.13757318e-01
  1.00000000e+00  3.34945995e-02  2.34726947e-01  8.13757318e-01  1.00000000e+00
  1.83470016e-03  1.40373012e-02  6.88426061e-02  2.32184421e-01  4.67941342e-01
  3.62312032e-01 -1.19332409e-01 -1.60854212e-01  1.14345648e+00  6.89990956e-02
  3.16423980e-01  7.44308252e-01  1.00000000e+00  1.00000000e+00  1.00000000e+00
  1.00000000e+00  1.00000000e+00  3.34945995e-02  2.34726947e-01  8.13757318e-01
  1.00000000e+00  3.34945995e-02  2.34726947e-01  8.13757318e-01  1.00000000e+00
  3.34945995e-02  2.34726947e-01  8.13757318e-01  1.00000000e+00  3.34945995e-02
  2.34726947e-01  8.13757318e-01  1.00000000e+00  1.83109981e-03  1.39500985e-02
  6.84450927e-02  2.32714275e-01  4.70192950e-01  3.58520862e-01 -1.10777504e-01
 -1.48026305e-01  1.13076704e+00  7.08742995e-02  3.39752798e-01  7.27158595e-01
  1.00000000e+00  1.00000000e+00  1.00000000e+00  1.00000000e+00  1.00000000e+00
  3.34945995e-02  2.34726947e-01  8.13757318e-01  1.00000000e+00
Coordinates of each shell                  R   N=         384
  9.91223479e-02 -7.73140226e-03 -5.11582436e-01  9.91223479e-02 -7.73140226e-03
 -5.11582436e-01  9.91223479e-02 -7.73140226e-03 -5.11582436e-01  9.91223479e-02
 -7.73140226e-03 -5.11582436e-01  9.91223479e-02 -7.73140226e-03 -5.11582436e-01
  9.91223479e-02 -7.73140226e-03 -5.11582436e-01  9.91223479e-02 -7.73140226e-03
 -5.11582436e-01  9.91223479e-02 -7.73140226e-03 -5.11582436e-01 -2.55843824e+00
  6.60176352e-01  2.46294784e-01 -2.55843824e+00  6.60176352e-01  2.46294784e-01
 -2.55843824e+00  6.60176352e-01  2.46294784e-01 -2.55843824e+00  6.60176352e-01
  2.46294784e-01 -2.55843824e+00  6.60176352e-01  2.46294784e-01 -2.55843824e+00
  6.60176352e-01  2.46294784e-01 -2.55843824e+00  6.60176352e-01  2.46294784e-01
 -2.55843824e+00  6.60176352e-01  2.46294784e-01 -3.20373038e+00  1.89715505e+00
  2.81143284e+00 -3.20373038e+00  1.89715505e+00  2.81143284e+00 -3.20373038e+00
  1.89715505e+00  2.81143284e+00 -3.20373038e+00  1.89715505e+00  2.81143284e+00
 -3.20373038e+00  1.89715505e+00  2.81143284e+00 -3.20373038e+00  1.89715505e+00
  2.81143284e+00 -3.20373038e+00  1.89715505e+00  2.81143284e+00 -3.20373038e+00
  1.89715505e+00  2.81143284e+00 -2.05387352e+00  6.19295343e-01  4.98118436e+00
 -2.05387352e+00  6.19295343e-01  4.98118436e+00 -2.05387352e+00  6.19295343e-01
  4.98118436e+00 -2.05387352e+00  6.19295343e-01  4.98118436e+00 -2.05387352e+00
  6.19295343e-01  4.98118436e+00 -2.05387352e+00  6.19295343e-01  4.98118436e+00
 -2.05387352e+00  6.19295343e-01  4.98118436e+00 -2.05387352e+00  6.19295343e-01
  4.98118436e+00  2.19498501e+00  1.83051451e-01  1.10993681e+00  2.19498501e+00
  1.83051451e-01  1.10993681e+00  2.19498501e+00  1.83051451e-01  1.10993681e+00
  2.19498501e+00  1.83051451e-01  1.10993681e+00  2.19498501e+00  1.83051451e-01
  1.10993681e+00  2.19498501e+00  1.83051451e-01  1.10993681e+00  2.19498501e+00
  1.83051451e-01  1.10993681e+00  2.19498501e+00  1.83051451e-01  1.10993681e+00
  4.60813915e+00 -4.40449121e-01  2.34745694e-01  4.60813915e+00 -4.40449121e-01
  2.34745694e-01  4.60813915e+00 -4.40449121e-01  2.34745694e-01  4.60813915e+00
 -4.40449121e-01  2.34745694e-01  4.60813915e+00 -4.40449121e-01  2.34745694e-01
  4.60813915e+00 -4.40449121e-01  2.34745694e-01  4.60813915e+00 -4.40449121e-01
  2.34745694e-01  4.60813915e+00 -4.40449121e-01  2.34745694e-01  4.97327485e+00
 -1.25839736e+00 -2.24705517e+00  4.97327485e+00 -1.25839736e+00 -2.24705517e+00
  4.97327485e+00 -1.25839736e+00 -2.24705517e+00  4.97327485e+00 -1.25839736e+00
 -2.24705517e+00  4.97327485e+00 -1.25839736e+00 -2.24705517e+00  4.97327485e+00
 -1.25839736e+00 -2.24705517e+00  4.97327485e+00 -1.25839736e+00 -2.24705517e+00
  4.97327485e+00 -1.25839736e+00 -2.24705517e+00  2.86876532e+00 -1.43997582e+00
 -3.81553628e+00  2.86876532e+00 -1.43997582e+00 -3.81553628e+00  2.86876532e+00
 -1.43997582e+00 -3.81553628e+00  2.86876532e+00 -1.43997582e+00 -3.81553628e+00
  2.86876532e+00 -1.43997582e+00 -3.81553628e+00  2.86876532e+00 -1.43997582e+00
 -3.81553628e+00  2.86876532e+00 -1.43997582e+00 -3.81553628e+00  2.86876532e+00
 -1.43997582e+00 -3.81553628e+00  4.54414148e-01 -8.38585875e-01 -3.01343576e+00
  4.54414148e-01 -8.38585875e-01 -3.01343576e+00  4.54414148e-01 -8.38585875e-01
 -3.01343576e+00  4.54414148e-01 -8.38585875e-01 -3.01343576e+00  4.54414148e-01
 -8.38585875e-01 -3.01343576e+00  4.54414148e-01 -8.38585875e-01 -3.01343576e+00
  4.54414148e-01 -8.38585875e-01 -3.01343576e+00  4.54414148e-01 -8.38585875e-01
 -3.01343576e+00  1.91008013e+00  7.55875658e-01  3.05400449e+00  1.91008013e+00
  7.55875658e-01  3.05400449e+00 -1.14624328e+00 -9.94879991e-01 -4.28370598e+00
 -1.14624328e+00 -9.94879991e-01 -4.28370598e+00  6.21971638e+00 -2.96249592e-01
  1.49910459e+00  6.21971638e+00 -2.96249592e-01  1.49910459e+00  3.21189324e+00
 -2.24146116e+00 -6.23405263e+00  3.21189324e+00 -2.24146116e+00 -6.23405263e+00
  3.21189324e+00 -2.24146116e+00 -6.23405263e+00  3.21189324e+00 -2.24146116e+00
 -6.23405263e+00  3.21189324e+00 -2.24146116e+00 -6.23405263e+00  3.21189324e+00
 -2.24146116e+00 -6.23405263e+00  3.21189324e+00 -2.24146116e+00 -6.23405263e+00
  3.21189324e+00 -2.24146116e+00 -6.23405263e+00 -2.43813735e+00  4.70141340e+00
  2.76979670e+00 -2.43813735e+00  4.70141340e+00  2.76979670e+00 -2.43813735e+00
  4.70141340e+00  2.76979670e+00 -2.43813735e+00  4.70141340e+00  2.76979670e+00
 -2.43813735e+00  4.70141340e+00  2.76979670e+00 -2.43813735e+00  4.70141340e+00
  2.76979670e+00 -2.43813735e+00  4.70141340e+00  2.76979670e+00 -2.43813735e+00
  4.70141340e+00  2.76979670e+00 -5.28613912e+00  1.79648535e+00  2.88140222e+00
 -5.28613912e+00  1.79648535e+00  2.88140222e+00 -3.85488926e-01  4.93058282e+00
  2.65868713e+00 -3.85488926e-01  4.93058282e+00  2.65868713e+00 -3.10681587e+00
  5.63877960e+00  4.49489829e+00 -3.10681587e+00  5.63877960e+00  4.49489829e+00
 -3.30138483e+00  5.66525115e+00  1.15561284e+00 -3.30138483e+00  5.66525115e+00
  1.15561284e+00 -3.07997881e+00 -1.90401534e+00  5.47009011e+00 -3.07997881e+00
 -1.90401534e+00  5.47009011e+00 -3.07997881e+00 -1.90401534e+00  5.47009011e+00
 -3.07997881e+00 -1.90401534e+00  5.47009011e+00 -3.07997881e+00 -1.90401534e+00
  5.47009011e+00 -3.07997881e+00 -1.90401534e+00  5.47009011e+00 -3.07997881e+00
 -1.90401534e+00  5.47009011e+00 -3.07997881e+00 -1.90401534e+00  5.47009011e+00
 -2.29625286e+00  1.72445036e+00  6.53812681e+00 -2.29625286e+00  1.72445036e+00
  6.53812681e+00 -2.54167270e+00 -3.18719777e+00  3.93648380e+00 -2.54167270e+00
 -3.18719777e+00  3.93648380e+00 -5.16047414e+00 -1.94054836e+00  5.63293826e+00
 -5.16047414e+00 -1.94054836e+00  5.63293826e+00 -2.26290560e+00 -2.64197719e+00
  7.22112774e+00 -2.26290560e+00 -2.64197719e+00  7.22112774e+00 -4.29328177e+00
  3.44306748e-01 -1.25297785e+00 -4.29328177e+00  3.44306748e-01 -1.25297785e+00
 -4.29328177e+00  3.44306748e-01 -1.25297785e+00 -4.29328177e+00  3.44306748e-01
 -1.25297785e+00 -4.29328177e+00  3.44306748e-01 -1.25297785e+00 -4.29328177e+00
  3.44306748e-01 -1.25297785e+00 -4.29328177e+00  3.44306748e-01 -1.25297785e+00
 -4.29328177e+00  3.44306748e-01 -1.25297785e+00  6.82934750e+00 -1.75316330e+00
 -2.96750376e+00  6.82934750e+00 -1.75316330e+00 -2.96750376e+00
Total Energy                               R     -6.181190228701033e+02
Alpha Orbital Energies                     R   N=         271
 -2.47265538e+01 -1.91548597e+01 -1.43441748e+01 -1.02888093e+01 -1.02882019e+01
 -1.02363403e+01 -1.02206829e+01 -1.02183868e+01 -1.02171722e+01 -1.02159093e+01
 -1.02113578e+01 -1.02082953e+01 -1.01993792e+01 -1.23087472e+00 -1.05298727e+00
 -9.24897781e-01 -8.78544382e-01 -7.86222861e-01 -7.72122850e-01 -7.62335695e-01
 -6.77003777e-01 -6.72773625e-01 -6.36464148e-01 -6.27479247e-01 -5.76025854e-01
 -5.25615636e-01 -5.15251626e-01 -5.01117372e-01 -4.99065695e-01 -4.80316810e-01
 -4.73643467e-01 -4.63481938e-01 -4.51039818e-01 -4.42843513e-01 -4.32531328e-01
 -4.21025955e-01 -4.06919477e-01 -4.00796935e-01 -3.95112773e-01 -3.85582266e-01
 -3.76175449e-01 -3.71804398e-01 -3.66119883e-01 -3.55285204e-01 -2.74937968e-01
 -2.66396571e-01 -2.62767510e-01 -2.43719454e-01 -7.61485479e-02 -2.08868000e-02
 -6.12060080e-03  8.73280217e-03  1.04068478e-02  1.89296846e-02  2.44394417e-02
  3.03360432e-02  3.36585441e-02  4.37957571e-02  5.15376914e-02  5.68255091e-02
  5.94936075e-02  6.32535784e-02  6.84641134e-02  7.53504983e-02  8.42998419e-02
  9.00879093e-02  9.26694081e-02  9.45322986e-02  1.08695364e-01  1.13340465e-01
  1.18457414e-01  1.22237653e-01  1.30385910e-01  1.37456974e-01  1.39276150e-01
  1.43624234e-01  1.46370205e-01  1.52440553e-01  1.59232142e-01  1.67370068e-01
  1.68691979e-01  1.78398012e-01  1.82814833e-01  1.85208857e-01  1.90834266e-01
  1.94233998e-01  1.98292147e-01  2.04442250e-01  2.08238198e-01  2.12783945e-01
  2.18693243e-01  2.22600719e-01  2.31574788e-01  2.33549986e-01  2.37516483e-01
  2.47344472e-01  2.48663923e-01  2.52095801e-01  2.56567544e-01  2.61887795e-01
  2.63439326e-01  2.68722855e-01  2.72378529e-01  2.82985155e-01  2.93666314e-01
  2.99591913e-01  3.01050373e-01  3.11771078e-01  3.19864571e-01  3.25883061e-01
  3.33353488e-01  3.40751037e-01  3.44876666e-01  3.52950897e-01  3.60172864e-01
  3.68248633e-01  3.70951033e-01  3.79112562e-01  3.79797913e-01  4.11472424e-01
  4.17500000e-01  4.26083671e-01  4.34805433e-01  4.49901722e-01  4.54483539e-01
  4.64554995e-01  5.18648050e-01  5.86244490e-01  6.01470947e-01  6.41611090e-01
  6.64412918e-01  6.73889167e-01  6.84116886e-01  6.88522296e-01  6.95058417e-01
  7.08525547e-01  7.17209013e-01  7.24244502e-01  7.27226813e-01  7.34807146e-01
  7.53251091e-01  7.63272454e-01  7.80187380e-01  7.99203459e-01  8.01087332e-01
  8.10970123e-01  8.26275801e-01  8.33690312e-01  8.41395629e-01  8.70589478e-01
  8.83774923e-01  8.94924771e-01  9.04518643e-01  9.41821483e-01  9.55090118e-01
  9.57880582e-01  9.69090329e-01  9.86314952e-01  1.00988581e+00  1.01486826e+00
  1.01857731e+00  1.02831188e+00  1.04211425e+00  1.05917862e+00  1.07532969e+00
  1.08985488e+00  1.09677374e+00  1.13358737e+00  1.13629183e+00  1.14443607e+00
  1.16041250e+00  1.16891192e+00  1.19290102e+00  1.20974257e+00  1.22136878e+00
  1.24233267e+00  1.26806244e+00  1.28245408e+00  1.29906272e+00  1.32853675e+00
  1.34105848e+00  1.34885631e+00  1.35497254e+00  1.39569068e+00  1.40727577e+00
  1.41887002e+00  1.43335257e+00  1.45246954e+00  1.45820677e+00  1.46760078e+00
  1.48013729e+00  1.49985762e+00  1.54034726e+00  1.58593887e+00  1.63566022e+00
  1.64148709e+00  1.66781263e+00  1.69959839e+00  1.70594971e+00  1.73177405e+00
  1.73962722e+00  1.77975363e+00  1.80036825e+00  1.81835483e+00  1.82193746e+00
  1.83225194e+00  1.83956276e+00  1.87688154e+00  1.91100602e+00  1.92627931e+00
  1.92980692e+00  1.95111756e+00  1.95196676e+00  1.96112880e+00  1.98391201e+00
  1.99994836e+00  2.01074857e+00  2.02475495e+00  2.04931282e+00  2.06146590e+00
  2.10785643e+00  2.11931508e+00  2.13187523e+00  2.13755059e+00  2.17856503e+00
  2.18689889e+00  2.23078778e+00  2.24855387e+00  2.26631384e+00  2.28254509e+00
  2.29728517e+00  2.31221111e+00  2.31426614e+00  2.35452370e+00  2.37128054e+00
  2.40730695e+00  2.42212716e+00  2.44495189e+00  2.50154397e+00  2.52894889e+00
  2.56867876e+00  2.58675078e+00  2.60053787e+00  2.60547011e+00  2.65014567e+00
  2.66745691e+00  2.70545612e+00  2.75756600e+00  2.78314206e+00  2.80425185e+00
  2.82191241e+00  2.85122064e+00  2.96980788e+00  3.06434898e+00  3.14319204e+00
  3.21269977e+00  3.24605059e+00  3.44329028e+00  4.11597950e+00  4.23034281e+00
  4.24594985e+00  4.26745501e+00  4.27961130e+00  4.32738266e+00  4.35254651e+00
  4.41049964e+00  4.46359543e+00  4.54249389e+00  4.67165213e+00  4.77802755e+00
  5.98526614e+00
Alpha MO coefficients                      R   N=       73441
 -1.38382763e-05 -7.04402744e-05  2.32764945e-05 -3.65912307e-06  5.96134654e-07
  1.95532395e-03  2.14082682e-04 -2.99355715e-04 -8.58572669e-04 -2.06074333e-07
 -1.45045327e-05 -1.90375464e-05 -6.74637307e-06 -1.32386232e-05  5.12430598e-07
  4.45578021e-03 -1.32345055e-03 -6.95631989e-04 -3.11234338e-03  4.81598490e-06
  2.53294847e-05  1.03784432e-05 -4.03808759e-06 -4.71317169e-06 -2.31650518e-04
 -5.39887211e-05  1.79954534e-04  4.62519498e-04 -7.76175025e-06  1.17924598e-05
  9.10268203e-07  2.88753007e-06  3.93071319e-06 -5.73755778e-06  8.82976361e-05
 -1.78321884e-03  1.55235714e-03  3.84814353e-03  1.72366592e-06  1.08946807e-05
 -6.89198569e-06 -1.03125851e-06  5.12338912e-06 -2.41859363e-04  2.68650069e-05
  8.18883637e-05  1.24923839e-04  2.22436861e-06  1.11306642e-06 -3.17139976e-06
 -3.04332027e-07  5.05203830e-07 -3.94319227e-06 -6.78825069e-03 -3.96812963e-04
  8.49045555e-04  1.08461900e-03  1.77738481e-07  1.74992977e-06 -5.76843393e-07
  5.29900109e-07 -1.76153707e-06 -9.51948099e-06  4.80013995e-07 -1.09238694e-05
  9.35379527e-06  1.15990522e-06 -1.27649340e-06 -3.99708102e-07  1.47608000e-06
  1.59986732e-06  4.06292052e-09  3.84686065e-04 -1.20827019e-04  6.74218744e-05
 -5.65980415e-05  7.53901838e-06  3.31297251e-05 -5.59666211e-06 -5.26838224e-06
 -1.67070995e-05 -5.44429324e-04 -2.17716995e-04  1.98071403e-04  5.35344714e-04
  9.00404245e-06  1.30992574e-05  5.51091335e-06  8.12974522e-07  6.29774310e-07