Generated by Psi4
     FORCE                           RHF                       TESTBAS
Number of atoms                            I               28
Charge                                     I                0
Multiplicity                               I                1
Number of electrons                        I              104
Number of alpha electrons                  I               52
Number of beta electrons                   I               52
Number of basis functions                  I              294
Number of independent functions            I              294
Atomic numbers                             I   N=          28
           6           6           8           6           6           6
           6           6           7           6           6           6
           1           1           1           1           1           1
           1           1           1           9           1           6
           1           1           1           1
Nuclear charges                            R   N=          28
  6.00000000e+00  6.00000000e+00  8.00000000e+00  6.00000000e+00  6.00000000e+00
  6.00000000e+00  6.00000000e+00  6.00000000e+00  7.00000000e+00  6.00000000e+00
  6.00000000e+00  6.00000000e+00  1.00000000e+00  1.00000000e+00  1.00000000e+00
  1.00000000e+00  1.00000000e+00  1.00000000e+00  1.00000000e+00  1.00000000e+00
  1.00000000e+00  9.00000000e+00  1.00000000e+00  6.00000000e+00  1.00000000e+00
  1.00000000e+00  1.00000000e+00  1.00000000e+00
Current cartesian coordinates              R   N=          84
 -6.63573780e+00 -8.60454119e-02  2.19391478e+00 -4.99643548e+00  2.13524052e+00
  3.01449330e+00 -2.36475324e+00  1.52972144e+00  2.84802964e+00 -1.67504081e+00
 -2.78412815e-01  9.36938798e-01  2.76239256e+00 -1.78539529e+00  3.77188359e-02
  1.05309756e+00  2.25712301e-01  2.23899996e-01  5.23945290e+00 -1.29368136e+00
 -6.81958538e-01  6.11044693e+00  1.12341102e+00 -1.21218169e+00 -6.04415243e+00
 -9.04976521e-01 -3.99872251e-01 -3.51825204e+00 -1.58429135e-01 -1.32459332e+00
  1.89444441e+00  2.68632733e+00 -2.86629062e-01  4.39683808e+00  3.12487339e+00
 -9.99307854e-01  5.03020919e+00  5.04027829e+00 -1.38440530e+00  8.06664965e+00
  1.41538469e+00 -1.75489905e+00 -5.34493010e+00  2.63894089e+00  4.99230438e+00
 -5.40459433e+00  3.80722671e+00  1.84240092e+00  2.19574951e+00 -3.71501806e+00
  4.48747745e-01 -6.33516047e+00 -1.66697872e+00  3.50664969e+00 -8.63887567e+00
  4.27302995e-01  2.32041168e+00 -1.80554227e+00 -2.19436701e+00  1.74021954e+00
  5.92126041e-01  4.25748098e+00 -8.24901986e-02  6.88139855e+00 -3.26836041e+00
 -8.54958004e-01 -7.38601381e+00 -3.00861458e-01 -1.63367581e+00 -2.77207669e+00
 -1.88441151e+00 -3.52063304e+00 -3.49018568e+00  1.81646892e+00 -2.00628647e+00
 -2.56965629e+00 -3.84216345e+00 -2.87596996e+00 -1.00235654e+00 -1.27627795e+00
 -4.40217217e+00 -4.25435304e+00 -1.85499011e+00 -4.96917308e+00
Integer atomic weights                     I   N=          28
          12          12          15          12          12          12
          12          12          14          12          12          12
           1           1           1           1           1           1
           1           1           1          18           1          12
           1           1           1           1
Real atomic weights                        R   N=          28
  1.20000000e+01  1.20000000e+01  1.59949146e+01  1.20000000e+01  1.20000000e+01
  1.20000000e+01  1.20000000e+01  1.20000000e+01  1.40030740e+01  1.20000000e+01
  1.20000000e+01  1.20000000e+01  1.00782503e+00  1.00782503e+00  1.00782503e+00
  1.00782503e+00  1.00782503e+00  1.00782503e+00  1.00782503e+00  1.00782503e+00
  1.00782503e+00  1.89984032e+01  1.00782503e+00  1.20000000e+01  1.00782503e+00
  1.00782503e+00  1.00782503e+00  1.00782503e+00
Number of primitive shells                 I              294
Number of contracted shells                I              140
Pure/Cartesian d shells                    I                1
Pure/Cartesian f shells                    I                1
Highest angular momentum                   I                2
Largest degree of contraction              I                6
Shell types                                I   N=         140
           0           0           1           0           1           2
           0           1           0           0           1           0
           1           2           0           1           0           0
           1           0           1           2           0           1
           0           0           1           0           1           2
           0           1           0           0           1           0
           1           2           0           1           0           0
           1           0           1           2           0           1
           0           0           1           0           1           2
           0           1           0           0           1           0
           1           2           0           1           0           0
           1           0           1           2           0           1
           0           0           1           0           1           2
           0           1           0           0           1           0
           1           2           0           1           0           0
           1           0           1           2           0           1
           0           0           0           0           0           0
           0           0           0           0           0           0
           0           0           0           0           0           0
           0           0           1           0           1           2
           0           1           0           0           0           0
           1           0           1           2           0           1
           0           0           0           0           0           0
           0           0
Number of primitives per shell             I   N=         140
           6           3           3           1           1           1
           1           1           6           3           3           1
           1           1           1           1           6           3
           3           1           1           1           1           1
           6           3           3           1           1           1
           1           1           6           3           3           1
           1           1           1           1           6           3
           3           1           1           1           1           1
           6           3           3           1           1           1
           1           1           6           3           3           1
           1           1           1           1           6           3
           3           1           1           1           1           1
           6           3           3           1           1           1
           1           1           6           3           3           1
           1           1           1           1           6           3
           3           1           1           1           1           1
           3           1           3           1           3           1
           3           1           3           1           3           1
           3           1           3           1           3           1
           6           3           3           1           1           1
           1           1           3           1           6           3
           3           1           1           1           1           1
           3           1           3           1           3           1
           3           1
Shell to atom map                          I   N=         140
           1           1           1           1           1           1
           1           1           2           2           2           2
           2           2           2           2           3           3
           3           3           3           3           3           3
           4           4           4           4           4           4
           4           4           5           5           5           5
           5           5           5           5           6           6
           6           6           6           6           6           6
           7           7           7           7           7           7
           7           7           8           8           8           8
           8           8           8           8           9           9
           9           9           9           9           9           9
          10          10          10          10          10          10
          10          10          11          11          11          11
          11          11          11          11          12          12
          12          12          12          12          12          12
          13          13          14          14          15          15
          16          16          17          17          18          18
          19          19          20          20          21          21
          22          22          22          22          22          22
          22          22          23          23          24          24
          24          24          24          24          24          24
          25          25          26          26          27          27
          28          28
Primitive exponents                        R   N=         294
  3.04752490e+03  4.57369510e+02  1.03948690e+02  2.92101550e+01  9.28666300e+00
  3.16392700e+00  7.86827240e+00  1.88128850e+00  5.44249300e-01  7.86827240e+00
  1.88128850e+00  5.44249300e-01  1.68714400e-01  1.68714400e-01  8.00000000e-01
  4.38000000e-02  4.38000000e-02  3.04752490e+03  4.57369510e+02  1.03948690e+02
  2.92101550e+01  9.28666300e+00  3.16392700e+00  7.86827240e+00  1.88128850e+00
  5.44249300e-01  7.86827240e+00  1.88128850e+00  5.44249300e-01  1.68714400e-01
  1.68714400e-01  8.00000000e-01  4.38000000e-02  4.38000000e-02  5.48467170e+03
  8.25234950e+02  1.88046960e+02  5.29645000e+01  1.68975700e+01  5.79963530e+00
  1.55396160e+01  3.59993360e+00  1.01376180e+00  1.55396160e+01  3.59993360e+00
  1.01376180e+00  2.70005800e-01  2.70005800e-01  8.00000000e-01  8.45000000e-02
  8.45000000e-02  3.04752490e+03  4.57369510e+02  1.03948690e+02  2.92101550e+01
  9.28666300e+00  3.16392700e+00  7.86827240e+00  1.88128850e+00  5.44249300e-01
  7.86827240e+00  1.88128850e+00  5.44249300e-01  1.68714400e-01  1.68714400e-01
  8.00000000e-01  4.38000000e-02  4.38000000e-02  3.04752490e+03  4.57369510e+02
  1.03948690e+02  2.92101550e+01  9.28666300e+00  3.16392700e+00  7.86827240e+00
  1.88128850e+00  5.44249300e-01  7.86827240e+00  1.88128850e+00  5.44249300e-01
  1.68714400e-01  1.68714400e-01  8.00000000e-01  4.38000000e-02  4.38000000e-02
  3.04752490e+03  4.57369510e+02  1.03948690e+02  2.92101550e+01  9.28666300e+00
  3.16392700e+00  7.86827240e+00  1.88128850e+00  5.44249300e-01  7.86827240e+00
  1.88128850e+00  5.44249300e-01  1.68714400e-01  1.68714400e-01  8.00000000e-01
  4.38000000e-02  4.38000000e-02  3.04752490e+03  4.57369510e+02  1.03948690e+02
  2.92101550e+01  9.28666300e+00  3.16392700e+00  7.86827240e+00  1.88128850e+00
  5.44249300e-01  7.86827240e+00  1.88128850e+00  5.44249300e-01  1.68714400e-01
  1.68714400e-01  8.00000000e-01  4.38000000e-02  4.38000000e-02  3.04752490e+03
  4.57369510e+02  1.03948690e+02  2.92101550e+01  9.28666300e+00  3.16392700e+00
  7.86827240e+00  1.88128850e+00  5.44249300e-01  7.86827240e+00  1.88128850e+00
  5.44249300e-01  1.68714400e-01  1.68714400e-01  8.00000000e-01  4.38000000e-02
  4.38000000e-02  4.17351100e+03  6.27457900e+02  1.42902100e+02  4.02343300e+01
  1.28202100e+01  4.39043700e+00  1.16263580e+01  2.71628000e+00  7.72218000e-01
  1.16263580e+01  2.71628000e+00  7.72218000e-01  2.12031300e-01  2.12031300e-01
  8.00000000e-01  6.39000000e-02  6.39000000e-02  3.04752490e+03  4.57369510e+02
  1.03948690e+02  2.92101550e+01  9.28666300e+00  3.16392700e+00  7.86827240e+00
  1.88128850e+00  5.44249300e-01  7.86827240e+00  1.88128850e+00  5.44249300e-01
  1.68714400e-01  1.68714400e-01  8.00000000e-01  4.38000000e-02  4.38000000e-02
  3.04752490e+03  4.57369510e+02  1.03948690e+02  2.92101550e+01  9.28666300e+00
  3.16392700e+00  7.86827240e+00  1.88128850e+00  5.44249300e-01  7.86827240e+00
  1.88128850e+00  5.44249300e-01  1.68714400e-01  1.68714400e-01  8.00000000e-01
  4.38000000e-02  4.38000000e-02  3.04752490e+03  4.57369510e+02  1.03948690e+02
  2.92101550e+01  9.28666300e+00  3.16392700e+00  7.86827240e+00  1.88128850e+00
  5.44249300e-01  7.86827240e+00  1.88128850e+00  5.44249300e-01  1.68714400e-01
  1.68714400e-01  8.00000000e-01  4.38000000e-02  4.38000000e-02  1.87311370e+01
  2.82539370e+00  6.40121700e-01  1.61277800e-01  1.87311370e+01  2.82539370e+00
  6.40121700e-01  1.61277800e-01  1.87311370e+01  2.82539370e+00  6.40121700e-01
  1.61277800e-01  1.87311370e+01  2.82539370e+00  6.40121700e-01  1.61277800e-01
  1.87311370e+01  2.82539370e+00  6.40121700e-01  1.61277800e-01  1.87311370e+01
  2.82539370e+00  6.40121700e-01  1.61277800e-01  1.87311370e+01  2.82539370e+00
  6.40121700e-01  1.61277800e-01  1.87311370e+01  2.82539370e+00  6.40121700e-01
  1.61277800e-01  1.87311370e+01  2.82539370e+00  6.40121700e-01  1.61277800e-01
  7.00171309e+03  1.05136609e+03  2.39285690e+02  6.73974453e+01  2.15199573e+01
  7.40310130e+00  2.08479528e+01  4.80830834e+00  1.34406986e+00  2.08479528e+01
  4.80830834e+00  1.34406986e+00  3.58151393e-01  3.58151393e-01  8.00000000e-01
  1.07600000e-01  1.07600000e-01  1.87311370e+01  2.82539370e+00  6.40121700e-01
  1.61277800e-01  3.04752490e+03  4.57369510e+02  1.03948690e+02  2.92101550e+01
  9.28666300e+00  3.16392700e+00  7.86827240e+00  1.88128850e+00  5.44249300e-01
  7.86827240e+00  1.88128850e+00  5.44249300e-01  1.68714400e-01  1.68714400e-01
  8.00000000e-01  4.38000000e-02  4.38000000e-02  1.87311370e+01  2.82539370e+00
  6.40121700e-01  1.61277800e-01  1.87311370e+01  2.82539370e+00  6.40121700e-01
  1.61277800e-01  1.87311370e+01  2.82539370e+00  6.40121700e-01  1.61277800e-01
  1.87311370e+01  2.82539370e+00  6.40121700e-01  1.61277800e-01
Contraction coefficients                   R   N=         294
  1.83470016e-03  1.40373012e-02  6.88426061e-02  2.32184421e-01  4.67941342e-01
  3.62312032e-01 -1.19332409e-01 -1.60854212e-01  1.14345648e+00  6.89990956e-02
  3.16423980e-01  7.44308252e-01  1.00000000e+00  1.00000000e+00  1.00000000e+00
  1.00000000e+00  1.00000000e+00  1.83470016e-03  1.40373012e-02  6.88426061e-02
  2.32184421e-01  4.67941342e-01  3.62312032e-01 -1.19332409e-01 -1.60854212e-01
  1.14345648e+00  6.89990956e-02  3.16423980e-01  7.44308252e-01  1.00000000e+00
  1.00000000e+00  1.00000000e+00  1.00000000e+00  1.00000000e+00  1.83109981e-03
  1.39500985e-02  6.84450927e-02  2.32714275e-01  4.70192950e-01  3.58520862e-01
 -1.10777504e-01 -1.48026305e-01  1.13076704e+00  7.08742995e-02  3.39752798e-01
  7.27158595e-01  1.00000000e+00  1.00000000e+00  1.00000000e+00  1.00000000e+00
  1.00000000e+00  1.83470016e-03  1.40373012e-02  6.88426061e-02  2.32184421e-01
  4.67941342e-01  3.62312032e-01 -1.19332409e-01 -1.60854212e-01  1.14345648e+00
  6.89990956e-02  3.16423980e-01  7.44308252e-01  1.00000000e+00  1.00000000e+00
  1.00000000e+00  1.00000000e+00  1.00000000e+00  1.83470016e-03  1.40373012e-02
  6.88426061e-02  2.32184421e-01  4.67941342e-01  3.62312032e-01 -1.19332409e-01
 -1.60854212e-01  1.14345648e+00  6.89990956e-02  3.16423980e-01  7.44308252e-01
  1.00000000e+00  1.00000000e+00  1.00000000e+00  1.00000000e+00  1.00000000e+00
  1.83470016e-03  1.40373012e-02  6.88426061e-02  2.32184421e-01  4.67941342e-01
  3.62312032e-01 -1.19332409e-01 -1.60854212e-01  1.14345648e+00  6.89990956e-02
  3.16423980e-01  7.44308252e-01  1.00000000e+00  1.00000000e+00  1.00000000e+00
  1.00000000e+00  1.00000000e+00  1.83470016e-03  1.40373012e-02  6.88426061e-02
  2.32184421e-01  4.67941342e-01  3.62312032e-01 -1.19332409e-01 -1.60854212e-01
  1.14345648e+00  6.89990956e-02  3.16423980e-01  7.44308252e-01  1.00000000e+00
  1.00000000e+00  1.00000000e+00  1.00000000e+00  1.00000000e+00  1.83470016e-03
  1.40373012e-02  6.88426061e-02  2.32184421e-01  4.67941342e-01  3.62312032e-01
 -1.19332409e-01 -1.60854212e-01  1.14345648e+00  6.89990956e-02  3.16423980e-01
  7.44308252e-01  1.00000000e+00  1.00000000e+00  1.00000000e+00  1.00000000e+00
  1.00000000e+00  1.83479944e-03  1.39949958e-02  6.85869792e-02  2.32240930e-01
  4.69069858e-01  3.60454891e-01 -1.14961023e-01 -1.69118034e-01  1.14585223e+00
  6.75800232e-02  3.23907111e-01  7.40895255e-01  1.00000000e+00  1.00000000e+00
  1.00000000e+00  1.00000000e+00  1.00000000e+00  1.83470016e-03  1.40373012e-02
  6.88426061e-02  2.32184421e-01  4.67941342e-01  3.62312032e-01 -1.19332409e-01
 -1.60854212e-01  1.14345648e+00  6.89990956e-02  3.16423980e-01  7.44308252e-01
  1.00000000e+00  1.00000000e+00  1.00000000e+00  1.00000000e+00  1.00000000e+00
  1.83470016e-03  1.40373012e-02  6.88426061e-02  2.32184421e-01  4.67941342e-01
  3.62312032e-01 -1.19332409e-01 -1.60854212e-01  1.14345648e+00  6.89990956e-02
  3.16423980e-01  7.44308252e-01  1.00000000e+00  1.00000000e+00  1.00000000e+00
  1.00000000e+00  1.00000000e+00  1.83470016e-03  1.40373012e-02  6.88426061e-02
  2.32184421e-01  4.67941342e-01  3.62312032e-01 -1.19332409e-01 -1.60854212e-01
  1.14345648e+00  6.89990956e-02  3.16423980e-01  7.44308252e-01  1.00000000e+00
  1.00000000e+00  1.00000000e+00  1.00000000e+00  1.00000000e+00  3.34945995e-02
  2.34726947e-01  8.13757318e-01  1.00000000e+00  3.34945995e-02  2.34726947e-01
  8.13757318e-01  1.00000000e+00  3.34945995e-02  2.34726947e-01  8.13757318e-01
  1.00000000e+00  3.34945995e-02  2.34726947e-01  8.13757318e-01  1.00000000e+00
  3.34945995e-02  2.34726947e-01  8.13757318e-01  1.00000000e+00  3.34945995e-02
  2.34726947e-01  8.13757318e-01  1.00000000e+00  3.34945995e-02  2.34726947e-01
  8.13757318e-01  1.00000000e+00  3.34945995e-02  2.34726947e-01  8.13757318e-01
  1.00000000e+00  3.34945995e-02  2.34726947e-01  8.13757318e-01  1.00000000e+00
  1.81961690e-03  1.39160796e-02  6.84053245e-02  2.33185760e-01  4.71267439e-01
  3.56618546e-01 -1.08506975e-01 -1.46451658e-01  1.12868858e+00  7.16287242e-02
  3.45912103e-01  7.22469956e-01  1.00000000e+00  1.00000000e+00  1.00000000e+00
  1.00000000e+00  1.00000000e+00  3.34945995e-02  2.34726947e-01  8.13757318e-01
  1.00000000e+00  1.83470016e-03  1.40373012e-02  6.88426061e-02  2.32184421e-01
  4.67941342e-01  3.62312032e-01 -1.19332409e-01 -1.60854212e-01  1.14345648e+00
  6.89990956e-02  3.16423980e-01  7.44308252e-01  1.00000000e+00  1.00000000e+00
  1.00000000e+00  1.00000000e+00  1.00000000e+00  3.34945995e-02  2.34726947e-01
  8.13757318e-01  1.00000000e+00  3.34945995e-02  2.34726947e-01  8.13757318e-01
  1.00000000e+00  3.34945995e-02  2.34726947e-01  8.13757318e-01  1.00000000e+00
  3.34945995e-02  2.34726947e-01  8.13757318e-01  1.00000000e+00
Coordinates of each shell                  R   N=         420
 -6.63573780e+00 -8.60454119e-02  2.19391478e+00 -6.63573780e+00 -8.60454119e-02
  2.19391478e+00 -6.63573780e+00 -8.60454119e-02  2.19391478e+00 -6.63573780e+00
 -8.60454119e-02  2.19391478e+00 -6.63573780e+00 -8.60454119e-02  2.19391478e+00
 -6.63573780e+00 -8.60454119e-02  2.19391478e+00 -6.63573780e+00 -8.60454119e-02
  2.19391478e+00 -6.63573780e+00 -8.60454119e-02  2.19391478e+00 -4.99643548e+00
  2.13524052e+00  3.01449330e+00 -4.99643548e+00  2.13524052e+00  3.01449330e+00
 -4.99643548e+00  2.13524052e+00  3.01449330e+00 -4.99643548e+00  2.13524052e+00
  3.01449330e+00 -4.99643548e+00  2.13524052e+00  3.01449330e+00 -4.99643548e+00
  2.13524052e+00  3.01449330e+00 -4.99643548e+00  2.13524052e+00  3.01449330e+00
 -4.99643548e+00  2.13524052e+00  3.01449330e+00 -2.36475324e+00  1.52972144e+00
  2.84802964e+00 -2.36475324e+00  1.52972144e+00  2.84802964e+00 -2.36475324e+00
  1.52972144e+00  2.84802964e+00 -2.36475324e+00  1.52972144e+00  2.84802964e+00
 -2.36475324e+00  1.52972144e+00  2.84802964e+00 -2.36475324e+00  1.52972144e+00
  2.84802964e+00 -2.36475324e+00  1.52972144e+00  2.84802964e+00 -2.36475324e+00
  1.52972144e+00  2.84802964e+00 -1.67504081e+00 -2.78412815e-01  9.36938798e-01
 -1.67504081e+00 -2.78412815e-01  9.36938798e-01 -1.67504081e+00 -2.78412815e-01
  9.36938798e-01 -1.67504081e+00 -2.78412815e-01  9.36938798e-01 -1.67504081e+00
 -2.78412815e-01  9.36938798e-01 -1.67504081e+00 -2.78412815e-01  9.36938798e-01
 -1.67504081e+00 -2.78412815e-01  9.36938798e-01 -1.67504081e+00 -2.78412815e-01
  9.36938798e-01  2.76239256e+00 -1.78539529e+00  3.77188359e-02  2.76239256e+00
 -1.78539529e+00  3.77188359e-02  2.76239256e+00 -1.78539529e+00  3.77188359e-02
  2.76239256e+00 -1.78539529e+00  3.77188359e-02  2.76239256e+00 -1.78539529e+00
  3.77188359e-02  2.76239256e+00 -1.78539529e+00  3.77188359e-02  2.76239256e+00
 -1.78539529e+00  3.77188359e-02  2.76239256e+00 -1.78539529e+00  3.77188359e-02
  1.05309756e+00  2.25712301e-01  2.23899996e-01  1.05309756e+00  2.25712301e-01
  2.23899996e-01  1.05309756e+00  2.25712301e-01  2.23899996e-01  1.05309756e+00
  2.25712301e-01  2.23899996e-01  1.05309756e+00  2.25712301e-01  2.23899996e-01
  1.05309756e+00  2.25712301e-01  2.23899996e-01  1.05309756e+00  2.25712301e-01
  2.23899996e-01  1.05309756e+00  2.25712301e-01  2.23899996e-01  5.23945290e+00
 -1.29368136e+00 -6.81958538e-01  5.23945290e+00 -1.29368136e+00 -6.81958538e-01
  5.23945290e+00 -1.29368136e+00 -6.81958538e-01  5.23945290e+00 -1.29368136e+00
 -6.81958538e-01  5.23945290e+00 -1.29368136e+00 -6.81958538e-01  5.23945290e+00
 -1.29368136e+00 -6.81958538e-01  5.23945290e+00 -1.29368136e+00 -6.81958538e-01
  5.23945290e+00 -1.29368136e+00 -6.81958538e-01  6.11044693e+00  1.12341102e+00
 -1.21218169e+00  6.11044693e+00  1.12341102e+00 -1.21218169e+00  6.11044693e+00
  1.12341102e+00 -1.21218169e+00  6.11044693e+00  1.12341102e+00 -1.21218169e+00
  6.11044693e+00  1.12341102e+00 -1.21218169e+00  6.11044693e+00  1.12341102e+00
 -1.21218169e+00  6.11044693e+00  1.12341102e+00 -1.21218169e+00  6.11044693e+00
  1.12341102e+00 -1.21218169e+00 -6.04415243e+00 -9.04976521e-01 -3.99872251e-01
 -6.04415243e+00 -9.04976521e-01 -3.99872251e-01 -6.04415243e+00 -9.04976521e-01
 -3.99872251e-01 -6.04415243e+00 -9.04976521e-01 -3.99872251e-01 -6.04415243e+00
 -9.04976521e-01 -3.99872251e-01 -6.04415243e+00 -9.04976521e-01 -3.99872251e-01
 -6.04415243e+00 -9.04976521e-01 -3.99872251e-01 -6.04415243e+00 -9.04976521e-01
 -3.99872251e-01 -3.51825204e+00 -1.58429135e-01 -1.32459332e+00 -3.51825204e+00
 -1.58429135e-01 -1.32459332e+00 -3.51825204e+00 -1.58429135e-01 -1.32459332e+00
 -3.51825204e+00 -1.58429135e-01 -1.32459332e+00 -3.51825204e+00 -1.58429135e-01
 -1.32459332e+00 -3.51825204e+00 -1.58429135e-01 -1.32459332e+00 -3.51825204e+00
 -1.58429135e-01 -1.32459332e+00 -3.51825204e+00 -1.58429135e-01 -1.32459332e+00
  1.89444441e+00  2.68632733e+00 -2.86629062e-01  1.89444441e+00  2.68632733e+00
 -2.86629062e-01  1.89444441e+00  2.68632733e+00 -2.86629062e-01  1.89444441e+00
  2.68632733e+00 -2.86629062e-01  1.89444441e+00  2.68632733e+00 -2.86629062e-01
  1.89444441e+00  2.68632733e+00 -2.86629062e-01  1.89444441e+00  2.68632733e+00
 -2.86629062e-01  1.89444441e+00  2.68632733e+00 -2.86629062e-01  4.39683808e+00
  3.12487339e+00 -9.99307854e-01  4.39683808e+00  3.12487339e+00 -9.99307854e-01
  4.39683808e+00  3.12487339e+00 -9.99307854e-01  4.39683808e+00  3.12487339e+00
 -9.99307854e-01  4.39683808e+00  3.12487339e+00 -9.99307854e-01  4.39683808e+00
  3.12487339e+00 -9.99307854e-01  4.39683808e+00  3.12487339e+00 -9.99307854e-01
  4.39683808e+00  3.12487339e+00 -9.99307854e-01  5.03020919e+00  5.04027829e+00
 -1.38440530e+00  5.03020919e+00  5.04027829e+00 -1.38440530e+00  8.06664965e+00
  1.41538469e+00 -1.75489905e+00  8.06664965e+00  1.41538469e+00 -1.75489905e+00
 -5.34493010e+00  2.63894089e+00  4.99230438e+00 -5.34493010e+00  2.63894089e+00
  4.99230438e+00 -5.40459433e+00  3.80722671e+00  1.84240092e+00 -5.40459433e+00
  3.80722671e+00  1.84240092e+00  2.19574951e+00 -3.71501806e+00  4.48747745e-01
  2.19574951e+00 -3.71501806e+00  4.48747745e-01 -6.33516047e+00 -1.66697872e+00
  3.50664969e+00 -6.33516047e+00 -1.66697872e+00  3.50664969e+00 -8.63887567e+00
  4.27302995e-01  2.32041168e+00 -8.63887567e+00  4.27302995e-01  2.32041168e+00
 -1.80554227e+00 -2.19436701e+00  1.74021954e+00 -1.80554227e+00 -2.19436701e+00
  1.74021954e+00  5.92126041e-01  4.25748098e+00 -8.24901986e-02  5.92126041e-01
  4.25748098e+00 -8.24901986e-02  6.88139855e+00 -3.26836041e+00 -8.54958004e-01
  6.88139855e+00 -3.26836041e+00 -8.54958004e-01  6.88139855e+00 -3.26836041e+00
 -8.54958004e-01  6.88139855e+00 -3.26836041e+00 -8.54958004e-01  6.88139855e+00
 -3.26836041e+00 -8.54958004e-01  6.88139855e+00 -3.26836041e+00 -8.54958004e-01
  6.88139855e+00 -3.26836041e+00 -8.54958004e-01  6.88139855e+00 -3.26836041e+00
 -8.54958004e-01 -7.38601381e+00 -3.00861458e-01 -1.63367581e+00 -7.38601381e+00
 -3.00861458e-01 -1.63367581e+00 -2.77207669e+00 -1.88441151e+00 -3.52063304e+00
 -2.77207669e+00 -1.88441151e+00 -3.52063304e+00 -2.77207669e+00 -1.88441151e+00
 -3.52063304e+00 -2.77207669e+00 -1.88441151e+00 -3.52063304e+00 -2.77207669e+00
 -1.88441151e+00 -3.52063304e+00 -2.77207669e+00 -1.88441151e+00 -3.52063304e+00
 -2.77207669e+00 -1.88441151e+00 -3.52063304e+00 -2.77207669e+00 -1.88441151e+00
 -3.52063304e+00 -3.49018568e+00  1.81646892e+00 -2.00628647e+00 -3.49018568e+00
  1.81646892e+00 -2.00628647e+00 -2.56965629e+00 -3.84216345e+00 -2.87596996e+00
 -2.56965629e+00 -3.84216345e+00 -2.87596996e+00 -1.00235654e+00 -1.27627795e+00
 -4.40217217e+00 -1.00235654e+00 -1.27627795e+00 -4.40217217e+00 -4.25435304e+00
 -1.85499011e+00 -4.96917308e+00 -4.25435304e+00 -1.85499011e+00 -4.96917308e+00
Total Energy                               R     -6.574153757906402e+02
Alpha Orbital Energies                     R   N=         294
 -2.47218028e+01 -1.91592533e+01 -1.43335890e+01 -1.02813142e+01 -1.02517987e+01
 -1.02402501e+01 -1.02293050e+01 -1.02218193e+01 -1.02127711e+01 -1.02085353e+01
 -1.02056078e+01 -1.02050909e+01 -1.01989185e+01 -1.01821856e+01 -1.22548299e+00
 -1.04074852e+00 -9.12743358e-01 -8.72934359e-01 -8.06358226e-01 -7.62229187e-01
 -7.53918295e-01 -7.20516763e-01 -6.88995873e-01 -6.36672999e-01 -6.26031998e-01
 -6.16907538e-01 -5.64567878e-01 -5.37708964e-01 -5.22237854e-01 -5.02952199e-01
 -4.97931729e-01 -4.89638033e-01 -4.84678545e-01 -4.67405122e-01 -4.50245688e-01
 -4.44097607e-01 -4.33800229e-01 -4.18696409e-01 -4.15528326e-01 -4.00044615e-01
 -3.97057408e-01 -3.84894301e-01 -3.78680780e-01 -3.70408470e-01 -3.64834697e-01
 -3.59034214e-01 -3.55058859e-01 -3.09531007e-01 -2.72022761e-01 -2.60306718e-01
 -2.48989609e-01 -2.31397496e-01 -2.60339476e-02 -1.42281924e-02 -5.16560164e-03
  9.50632503e-03  1.24834185e-02  1.57441225e-02  2.83497912e-02  3.32199505e-02
  4.02120603e-02  4.51158258e-02  4.82102733e-02  4.97040703e-02  6.15199263e-02
  6.49096895e-02  7.17746346e-02  7.45593368e-02  8.40312226e-02  8.59388825e-02
  9.28164467e-02  9.74328325e-02  1.06229770e-01  1.10507618e-01  1.20104025e-01
  1.24602368e-01  1.26580700e-01  1.29332283e-01  1.36208921e-01  1.38023865e-01
  1.42016210e-01  1.48665749e-01  1.52792216e-01  1.57708941e-01  1.60374939e-01
  1.61962007e-01  1.66290079e-01  1.75293751e-01  1.79195109e-01  1.84517937e-01
  1.88746102e-01  1.94956386e-01  1.97914831e-01  2.05430874e-01  2.07802431e-01
  2.08471332e-01  2.15322675e-01  2.17041605e-01  2.23612797e-01  2.25579809e-01
  2.28602770e-01  2.33517482e-01  2.39447598e-01  2.43649915e-01  2.49718086e-01
  2.52246427e-01  2.57662566e-01  2.64579959e-01  2.66081839e-01  2.76308295e-01
  2.77150710e-01  2.86558376e-01  2.92632951e-01  2.94259329e-01  3.03793466e-01
  3.11511802e-01  3.16176999e-01  3.25086674e-01  3.31709188e-01  3.37962979e-01
  3.40636823e-01  3.50530005e-01  3.53876598e-01  3.57127072e-01  3.68299393e-01
  3.74850150e-01  3.78312276e-01  3.81060502e-01  3.93730961e-01  3.97634869e-01
  4.10533056e-01  4.17649123e-01  4.25794779e-01  4.36318774e-01  4.48674416e-01
  4.50136643e-01  4.75421400e-01  4.78099837e-01  5.88776720e-01  6.00867659e-01
  6.39177099e-01  6.39778225e-01  6.66231079e-01  6.77429672e-01  6.83662405e-01
  6.91132836e-01  6.96256233e-01  7.12380792e-01  7.16770451e-01  7.25580484e-01
  7.35594372e-01  7.42594292e-01  7.46589893e-01  7.62705005e-01  7.68905224e-01
  7.79467570e-01  8.00705672e-01  8.14000374e-01  8.22932563e-01  8.27608738e-01
  8.54834636e-01  8.78077567e-01  8.81297453e-01  8.98694935e-01  9.06118350e-01
  9.30278399e-01  9.36871744e-01  9.50261998e-01  9.53471303e-01  9.67870152e-01
  9.74819197e-01  9.85724859e-01  1.00571474e+00  1.01930240e+00  1.03130506e+00
  1.03794360e+00  1.05067232e+00  1.06368259e+00  1.06766960e+00  1.08087593e+00
  1.08871938e+00  1.11727742e+00  1.12477003e+00  1.13132475e+00  1.14783079e+00
  1.16867664e+00  1.17427647e+00  1.18170328e+00  1.22418376e+00  1.22747514e+00
  1.23741537e+00  1.25030229e+00  1.27170614e+00  1.28333574e+00  1.30055193e+00
  1.33622176e+00  1.34318577e+00  1.38749232e+00  1.40148060e+00  1.42546220e+00
  1.44290318e+00  1.45791456e+00  1.46103865e+00  1.47899108e+00  1.49288223e+00
  1.50042199e+00  1.52570059e+00  1.55762939e+00  1.56488277e+00  1.58572417e+00
  1.63964180e+00  1.64726981e+00  1.65482684e+00  1.69394488e+00  1.72707392e+00
  1.74198548e+00  1.74821879e+00  1.79195537e+00  1.81195882e+00  1.81874495e+00
  1.81952808e+00  1.82669998e+00  1.85008386e+00  1.85384793e+00  1.87445902e+00
  1.89273708e+00  1.91846091e+00  1.91969389e+00  1.93219735e+00  1.95225348e+00
  1.96937215e+00  1.97430007e+00  1.99377088e+00  2.01007650e+00  2.02147138e+00