Generated by Psi4
     FORCE                           RHF                       TESTBAS
Number of atoms                            I               23
Charge                                     I                0
Multiplicity                               I                1
Number of electrons                        I               82
Number of alpha electrons                  I               41
Number of beta electrons                   I               41
Number of basis functions                  I              233
Number of independent functions            I              233
Atomic numbers                             I   N=          23
           6           6           6           1           1           7
           6           6           6           6           6           6
           1           1           1           1           1           1
           1           1           1           1           9
Nuclear charges                            R   N=          23
  6.00000000e+00  6.00000000e+00  6.00000000e+00  1.00000000e+00  1.00000000e+00
  7.00000000e+00  6.00000000e+00  6.00000000e+00  6.00000000e+00  6.00000000e+00
  6.00000000e+00  6.00000000e+00  1.00000000e+00  1.00000000e+00  1.00000000e+00
  1.00000000e+00  1.00000000e+00  1.00000000e+00  1.00000000e+00  1.00000000e+00
  1.00000000e+00  1.00000000e+00  9.00000000e+00
Current cartesian coordinates              R   N=          69
  3.41774989e-01 -1.06251071e+00 -4.99722073e-02 -1.10196241e+00 -2.47843809e+00
  1.97392523e+00 -3.94318804e+00 -1.74298089e+00  2.20631005e+00 -1.97558915e-01
 -2.19005128e+00  3.82084079e+00 -1.00569489e+00 -4.51427485e+00  1.57579751e+00
 -5.35899632e+00 -3.38830112e+00  3.93560584e+00  1.98971494e+00  9.14741845e-01
  5.81205290e-01  3.24581893e+00  2.20581640e+00 -1.32927843e+00  2.95300440e+00
  1.62696162e+00 -3.87145729e+00  1.31508424e+00 -3.50014026e-01 -4.49731443e+00
  2.90338051e-02 -1.67824304e+00 -2.61369217e+00 -4.30494935e+00  1.00361496e+00
  3.03528257e+00 -4.81044493e+00 -1.97681053e+00  3.34365616e-01 -3.49113021e+00
  1.31584157e+00  4.92120379e+00 -6.32061212e+00  1.45777763e+00  3.12707367e+00
 -3.38648356e+00  2.31633079e+00  1.72698743e+00  2.30674365e+00  1.45664783e+00
  2.53556347e+00  1.05267668e+00 -8.58576719e-01 -6.46978210e+00 -1.22346962e+00
 -3.22130421e+00 -3.13814497e+00 -4.69704882e+00 -3.21391389e+00  5.73762959e+00
 -5.17609488e+00 -5.24136310e+00  3.44506856e+00  3.98110305e+00  2.68593958e+00
 -5.29524476e+00  4.83715306e+00  4.11912434e+00 -6.71027805e-01
Integer atomic weights                     I   N=          23
          12          12          12           1           1          14
          12          12          12          12          12          12
           1           1           1           1           1           1
           1           1           1           1          18
Real atomic weights                        R   N=          23
  1.20000000e+01  1.20000000e+01  1.20000000e+01  1.00782503e+00  1.00782503e+00
  1.40030740e+01  1.20000000e+01  1.20000000e+01  1.20000000e+01  1.20000000e+01
  1.20000000e+01  1.20000000e+01  1.00782503e+00  1.00782503e+00  1.00782503e+00
  1.00782503e+00  1.00782503e+00  1.00782503e+00  1.00782503e+00  1.00782503e+00
  1.00782503e+00  1.00782503e+00  1.89984032e+01
Number of primitive shells                 I              235
Number of contracted shells                I              112
Pure/Cartesian d shells                    I                1
Pure/Cartesian f shells                    I                1
Highest angular momentum                   I                2
Largest degree of contraction              I                6
Shell types                                I   N=         112
           0           0           1           0           1           2
           0           1           0           0           1           0
           1           2           0           1           0           0
           1           0           1           2           0           1
           0           0           0           0           0           0
           1           0           1           2           0           1
           0           0           1           0           1           2
           0           1           0           0           1           0
           1           2           0           1           0           0
           1           0           1           2           0           1
           0           0           1           0           1           2
           0           1           0           0           1           0
           1           2           0           1           0           0
           1           0           1           2           0           1
           0           0           0           0           0           0
           0           0           0           0           0           0
           0           0           0           0           0           0
           0           0           0           0           1           0
           1           2           0           1
Number of primitives per shell             I   N=         112
           6           3           3           1           1           1
           1           1           6           3           3           1
           1           1           1           1           6           3
           3           1           1           1           1           1
           3           1           3           1           6           3
           3           1           1           1           1           1
           6           3           3           1           1           1
           1           1           6           3           3           1
           1           1           1           1           6           3
           3           1           1           1           1           1
           6           3           3           1           1           1
           1           1           6           3           3           1
           1           1           1           1           6           3
           3           1           1           1           1           1
           3           1           3           1           3           1
           3           1           3           1           3           1
           3           1           3           1           3           1
           3           1           6           3           3           1
           1           1           1           1
Shell to atom map                          I   N=         112
           1           1           1           1           1           1
           1           1           2           2           2           2
           2           2           2           2           3           3
           3           3           3           3           3           3
           4           4           5           5           6           6
           6           6           6           6           6           6
           7           7           7           7           7           7
           7           7           8           8           8           8
           8           8           8           8           9           9
           9           9           9           9           9           9
          10          10          10          10          10          10
          10          10          11          11          11          11
          11          11          11          11          12          12
          12          12          12          12          12          12
          13          13          14          14          15          15
          16          16          17          17          18          18
          19          19          20          20          21          21
          22          22          23          23          23          23
          23          23          23          23
Primitive exponents                        R   N=         235
  3.04752490e+03  4.57369510e+02  1.03948690e+02  2.92101550e+01  9.28666300e+00
  3.16392700e+00  7.86827240e+00  1.88128850e+00  5.44249300e-01  7.86827240e+00
  1.88128850e+00  5.44249300e-01  1.68714400e-01  1.68714400e-01  8.00000000e-01
  4.38000000e-02  4.38000000e-02  3.04752490e+03  4.57369510e+02  1.03948690e+02
  2.92101550e+01  9.28666300e+00  3.16392700e+00  7.86827240e+00  1.88128850e+00
  5.44249300e-01  7.86827240e+00  1.88128850e+00  5.44249300e-01  1.68714400e-01
  1.68714400e-01  8.00000000e-01  4.38000000e-02  4.38000000e-02  3.04752490e+03
  4.57369510e+02  1.03948690e+02  2.92101550e+01  9.28666300e+00  3.16392700e+00
  7.86827240e+00  1.88128850e+00  5.44249300e-01  7.86827240e+00  1.88128850e+00
  5.44249300e-01  1.68714400e-01  1.68714400e-01  8.00000000e-01  4.38000000e-02
  4.38000000e-02  1.87311370e+01  2.82539370e+00  6.40121700e-01  1.61277800e-01
  1.87311370e+01  2.82539370e+00  6.40121700e-01  1.61277800e-01  4.17351100e+03
  6.27457900e+02  1.42902100e+02  4.02343300e+01  1.28202100e+01  4.39043700e+00
  1.16263580e+01  2.71628000e+00  7.72218000e-01  1.16263580e+01  2.71628000e+00
  7.72218000e-01  2.12031300e-01  2.12031300e-01  8.00000000e-01  6.39000000e-02
  6.39000000e-02  3.04752490e+03  4.57369510e+02  1.03948690e+02  2.92101550e+01
  9.28666300e+00  3.16392700e+00  7.86827240e+00  1.88128850e+00  5.44249300e-01
  7.86827240e+00  1.88128850e+00  5.44249300e-01  1.68714400e-01  1.68714400e-01
  8.00000000e-01  4.38000000e-02  4.38000000e-02  3.04752490e+03  4.57369510e+02
  1.03948690e+02  2.92101550e+01  9.28666300e+00  3.16392700e+00  7.86827240e+00
  1.88128850e+00  5.44249300e-01  7.86827240e+00  1.88128850e+00  5.44249300e-01
  1.68714400e-01  1.68714400e-01  8.00000000e-01  4.38000000e-02  4.38000000e-02
  3.04752490e+03  4.57369510e+02  1.03948690e+02  2.92101550e+01  9.28666300e+00
  3.16392700e+00  7.86827240e+00  1.88128850e+00  5.44249300e-01  7.86827240e+00
  1.88128850e+00  5.44249300e-01  1.68714400e-01  1.68714400e-01  8.00000000e-01
  4.38000000e-02  4.38000000e-02  3.04752490e+03  4.57369510e+02  1.03948690e+02
  2.92101550e+01  9.28666300e+00  3.16392700e+00  7.86827240e+00  1.88128850e+00
  5.44249300e-01  7.86827240e+00  1.88128850e+00  5.44249300e-01  1.68714400e-01
  1.68714400e-01  8.00000000e-01  4.38000000e-02  4.38000000e-02  3.04752490e+03
  4.57369510e+02  1.03948690e+02  2.92101550e+01  9.28666300e+00  3.16392700e+00
  7.86827240e+00  1.88128850e+00  5.44249300e-01  7.86827240e+00  1.88128850e+00
  5.44249300e-01  1.68714400e-01  1.68714400e-01  8.00000000e-01  4.38000000e-02
  4.38000000e-02  3.04752490e+03  4.57369510e+02  1.03948690e+02  2.92101550e+01
  9.28666300e+00  3.16392700e+00  7.86827240e+00  1.88128850e+00  5.44249300e-01
  7.86827240e+00  1.88128850e+00  5.44249300e-01  1.68714400e-01  1.68714400e-01
  8.00000000e-01  4.38000000e-02  4.38000000e-02  1.87311370e+01  2.82539370e+00
  6.40121700e-01  1.61277800e-01  1.87311370e+01  2.82539370e+00  6.40121700e-01
  1.61277800e-01  1.87311370e+01  2.82539370e+00  6.40121700e-01  1.61277800e-01
  1.87311370e+01  2.82539370e+00  6.40121700e-01  1.61277800e-01  1.87311370e+01
  2.82539370e+00  6.40121700e-01  1.61277800e-01  1.87311370e+01  2.82539370e+00
  6.40121700e-01  1.61277800e-01  1.87311370e+01  2.82539370e+00  6.40121700e-01
  1.61277800e-01  1.87311370e+01  2.82539370e+00  6.40121700e-01  1.61277800e-01
  1.87311370e+01  2.82539370e+00  6.40121700e-01  1.61277800e-01  1.87311370e+01
  2.82539370e+00  6.40121700e-01  1.61277800e-01  7.00171309e+03  1.05136609e+03
  2.39285690e+02  6.73974453e+01  2.15199573e+01  7.40310130e+00  2.08479528e+01
  4.80830834e+00  1.34406986e+00  2.08479528e+01  4.80830834e+00  1.34406986e+00
  3.58151393e-01  3.58151393e-01  8.00000000e-01  1.07600000e-01  1.07600000e-01
Contraction coefficients                   R   N=         235
  1.83470016e-03  1.40373012e-02  6.88426061e-02  2.32184421e-01  4.67941342e-01
  3.62312032e-01 -1.19332409e-01 -1.60854212e-01  1.14345648e+00  6.89990956e-02
  3.16423980e-01  7.44308252e-01  1.00000000e+00  1.00000000e+00  1.00000000e+00
  1.00000000e+00  1.00000000e+00  1.83470016e-03  1.40373012e-02  6.88426061e-02
  2.32184421e-01  4.67941342e-01  3.62312032e-01 -1.19332409e-01 -1.60854212e-01
  1.14345648e+00  6.89990956e-02  3.16423980e-01  7.44308252e-01  1.00000000e+00
  1.00000000e+00  1.00000000e+00  1.00000000e+00  1.00000000e+00  1.83470016e-03
  1.40373012e-02  6.88426061e-02  2.32184421e-01  4.67941342e-01  3.62312032e-01
 -1.19332409e-01 -1.60854212e-01  1.14345648e+00  6.89990956e-02  3.16423980e-01
  7.44308252e-01  1.00000000e+00  1.00000000e+00  1.00000000e+00  1.00000000e+00
  1.00000000e+00  3.34945995e-02  2.34726947e-01  8.13757318e-01  1.00000000e+00
  3.34945995e-02  2.34726947e-01  8.13757318e-01  1.00000000e+00  1.83479944e-03
  1.39949958e-02  6.85869792e-02  2.32240930e-01  4.69069858e-01  3.60454891e-01
 -1.14961023e-01 -1.69118034e-01  1.14585223e+00  6.75800232e-02  3.23907111e-01
  7.40895255e-01  1.00000000e+00  1.00000000e+00  1.00000000e+00  1.00000000e+00
  1.00000000e+00  1.83470016e-03  1.40373012e-02  6.88426061e-02  2.32184421e-01
  4.67941342e-01  3.62312032e-01 -1.19332409e-01 -1.60854212e-01  1.14345648e+00
  6.89990956e-02  3.16423980e-01  7.44308252e-01  1.00000000e+00  1.00000000e+00
  1.00000000e+00  1.00000000e+00  1.00000000e+00  1.83470016e-03  1.40373012e-02
  6.88426061e-02  2.32184421e-01  4.67941342e-01  3.62312032e-01 -1.19332409e-01
 -1.60854212e-01  1.14345648e+00  6.89990956e-02  3.16423980e-01  7.44308252e-01
  1.00000000e+00  1.00000000e+00  1.00000000e+00  1.00000000e+00  1.00000000e+00
  1.83470016e-03  1.40373012e-02  6.88426061e-02  2.32184421e-01  4.67941342e-01
  3.62312032e-01 -1.19332409e-01 -1.60854212e-01  1.14345648e+00  6.89990956e-02
  3.16423980e-01  7.44308252e-01  1.00000000e+00  1.00000000e+00  1.00000000e+00
  1.00000000e+00  1.00000000e+00  1.83470016e-03  1.40373012e-02  6.88426061e-02
  2.32184421e-01  4.67941342e-01  3.62312032e-01 -1.19332409e-01 -1.60854212e-01
  1.14345648e+00  6.89990956e-02  3.16423980e-01  7.44308252e-01  1.00000000e+00
  1.00000000e+00  1.00000000e+00  1.00000000e+00  1.00000000e+00  1.83470016e-03
  1.40373012e-02  6.88426061e-02  2.32184421e-01  4.67941342e-01  3.62312032e-01
 -1.19332409e-01 -1.60854212e-01  1.14345648e+00  6.89990956e-02  3.16423980e-01
  7.44308252e-01  1.00000000e+00  1.00000000e+00  1.00000000e+00  1.00000000e+00
  1.00000000e+00  1.83470016e-03  1.40373012e-02  6.88426061e-02  2.32184421e-01
  4.67941342e-01  3.62312032e-01 -1.19332409e-01 -1.60854212e-01  1.14345648e+00
  6.89990956e-02  3.16423980e-01  7.44308252e-01  1.00000000e+00  1.00000000e+00
  1.00000000e+00  1.00000000e+00  1.00000000e+00  3.34945995e-02  2.34726947e-01
  8.13757318e-01  1.00000000e+00  3.34945995e-02  2.34726947e-01  8.13757318e-01
  1.00000000e+00  3.34945995e-02  2.34726947e-01  8.13757318e-01  1.00000000e+00
  3.34945995e-02  2.34726947e-01  8.13757318e-01  1.00000000e+00  3.34945995e-02
  2.34726947e-01  8.13757318e-01  1.00000000e+00  3.34945995e-02  2.34726947e-01
  8.13757318e-01  1.00000000e+00  3.34945995e-02  2.34726947e-01  8.13757318e-01
  1.00000000e+00  3.34945995e-02  2.34726947e-01  8.13757318e-01  1.00000000e+00
  3.34945995e-02  2.34726947e-01  8.13757318e-01  1.00000000e+00  3.34945995e-02
  2.34726947e-01  8.13757318e-01  1.00000000e+00  1.81961690e-03  1.39160796e-02
  6.84053245e-02  2.33185760e-01  4.71267439e-01  3.56618546e-01 -1.08506975e-01
 -1.46451658e-01  1.12868858e+00  7.16287242e-02  3.45912103e-01  7.22469956e-01
  1.00000000e+00  1.00000000e+00  1.00000000e+00  1.00000000e+00  1.00000000e+00
Coordinates of each shell                  R   N=         336
  3.41774989e-01 -1.06251071e+00 -4.99722073e-02  3.41774989e-01 -1.06251071e+00
 -4.99722073e-02  3.41774989e-01 -1.06251071e+00 -4.99722073e-02  3.41774989e-01
 -1.06251071e+00 -4.99722073e-02  3.41774989e-01 -1.06251071e+00 -4.99722073e-02
  3.41774989e-01 -1.06251071e+00 -4.99722073e-02  3.41774989e-01 -1.06251071e+00
 -4.99722073e-02  3.41774989e-01 -1.06251071e+00 -4.99722073e-02 -1.10196241e+00
 -2.47843809e+00  1.97392523e+00 -1.10196241e+00 -2.47843809e+00  1.97392523e+00
 -1.10196241e+00 -2.47843809e+00  1.97392523e+00 -1.10196241e+00 -2.47843809e+00
  1.97392523e+00 -1.10196241e+00 -2.47843809e+00  1.97392523e+00 -1.10196241e+00
 -2.47843809e+00  1.97392523e+00 -1.10196241e+00 -2.47843809e+00  1.97392523e+00
 -1.10196241e+00 -2.47843809e+00  1.97392523e+00 -3.94318804e+00 -1.74298089e+00
  2.20631005e+00 -3.94318804e+00 -1.74298089e+00  2.20631005e+00 -3.94318804e+00
 -1.74298089e+00  2.20631005e+00 -3.94318804e+00 -1.74298089e+00  2.20631005e+00
 -3.94318804e+00 -1.74298089e+00  2.20631005e+00 -3.94318804e+00 -1.74298089e+00
  2.20631005e+00 -3.94318804e+00 -1.74298089e+00  2.20631005e+00 -3.94318804e+00
 -1.74298089e+00  2.20631005e+00 -1.97558915e-01 -2.19005128e+00  3.82084079e+00
 -1.97558915e-01 -2.19005128e+00  3.82084079e+00 -1.00569489e+00 -4.51427485e+00
  1.57579751e+00 -1.00569489e+00 -4.51427485e+00  1.57579751e+00 -5.35899632e+00
 -3.38830112e+00  3.93560584e+00 -5.35899632e+00 -3.38830112e+00  3.93560584e+00
 -5.35899632e+00 -3.38830112e+00  3.93560584e+00 -5.35899632e+00 -3.38830112e+00
  3.93560584e+00 -5.35899632e+00 -3.38830112e+00  3.93560584e+00 -5.35899632e+00
 -3.38830112e+00  3.93560584e+00 -5.35899632e+00 -3.38830112e+00  3.93560584e+00
 -5.35899632e+00 -3.38830112e+00  3.93560584e+00  1.98971494e+00  9.14741845e-01
  5.81205290e-01  1.98971494e+00  9.14741845e-01  5.81205290e-01  1.98971494e+00
  9.14741845e-01  5.81205290e-01  1.98971494e+00  9.14741845e-01  5.81205290e-01
  1.98971494e+00  9.14741845e-01  5.81205290e-01  1.98971494e+00  9.14741845e-01
  5.81205290e-01  1.98971494e+00  9.14741845e-01  5.81205290e-01  1.98971494e+00
  9.14741845e-01  5.81205290e-01  3.24581893e+00  2.20581640e+00 -1.32927843e+00
  3.24581893e+00  2.20581640e+00 -1.32927843e+00  3.24581893e+00  2.20581640e+00
 -1.32927843e+00  3.24581893e+00  2.20581640e+00 -1.32927843e+00  3.24581893e+00
  2.20581640e+00 -1.32927843e+00  3.24581893e+00  2.20581640e+00 -1.32927843e+00
  3.24581893e+00  2.20581640e+00 -1.32927843e+00  3.24581893e+00  2.20581640e+00
 -1.32927843e+00  2.95300440e+00  1.62696162e+00 -3.87145729e+00  2.95300440e+00
  1.62696162e+00 -3.87145729e+00  2.95300440e+00  1.62696162e+00 -3.87145729e+00
  2.95300440e+00  1.62696162e+00 -3.87145729e+00  2.95300440e+00  1.62696162e+00
 -3.87145729e+00  2.95300440e+00  1.62696162e+00 -3.87145729e+00  2.95300440e+00
  1.62696162e+00 -3.87145729e+00  2.95300440e+00  1.62696162e+00 -3.87145729e+00
  1.31508424e+00 -3.50014026e-01 -4.49731443e+00  1.31508424e+00 -3.50014026e-01
 -4.49731443e+00  1.31508424e+00 -3.50014026e-01 -4.49731443e+00  1.31508424e+00
 -3.50014026e-01 -4.49731443e+00  1.31508424e+00 -3.50014026e-01 -4.49731443e+00
  1.31508424e+00 -3.50014026e-01 -4.49731443e+00  1.31508424e+00 -3.50014026e-01
 -4.49731443e+00  1.31508424e+00 -3.50014026e-01 -4.49731443e+00  2.90338051e-02
 -1.67824304e+00 -2.61369217e+00  2.90338051e-02 -1.67824304e+00 -2.61369217e+00
  2.90338051e-02 -1.67824304e+00 -2.61369217e+00  2.90338051e-02 -1.67824304e+00
 -2.61369217e+00  2.90338051e-02 -1.67824304e+00 -2.61369217e+00  2.90338051e-02
 -1.67824304e+00 -2.61369217e+00  2.90338051e-02 -1.67824304e+00 -2.61369217e+00
  2.90338051e-02 -1.67824304e+00 -2.61369217e+00 -4.30494935e+00  1.00361496e+00
  3.03528257e+00 -4.30494935e+00  1.00361496e+00  3.03528257e+00 -4.30494935e+00
  1.00361496e+00  3.03528257e+00 -4.30494935e+00  1.00361496e+00  3.03528257e+00
 -4.30494935e+00  1.00361496e+00  3.03528257e+00 -4.30494935e+00  1.00361496e+00
  3.03528257e+00 -4.30494935e+00  1.00361496e+00  3.03528257e+00 -4.30494935e+00
  1.00361496e+00  3.03528257e+00 -4.81044493e+00 -1.97681053e+00  3.34365616e-01
 -4.81044493e+00 -1.97681053e+00  3.34365616e-01 -3.49113021e+00  1.31584157e+00
  4.92120379e+00 -3.49113021e+00  1.31584157e+00  4.92120379e+00 -6.32061212e+00
  1.45777763e+00  3.12707367e+00 -6.32061212e+00  1.45777763e+00  3.12707367e+00
 -3.38648356e+00  2.31633079e+00  1.72698743e+00 -3.38648356e+00  2.31633079e+00
  1.72698743e+00  2.30674365e+00  1.45664783e+00  2.53556347e+00  2.30674365e+00
  1.45664783e+00  2.53556347e+00  1.05267668e+00 -8.58576719e-01 -6.46978210e+00
  1.05267668e+00 -8.58576719e-01 -6.46978210e+00 -1.22346962e+00 -3.22130421e+00
 -3.13814497e+00 -1.22346962e+00 -3.22130421e+00 -3.13814497e+00 -4.69704882e+00
 -3.21391389e+00  5.73762959e+00 -4.69704882e+00 -3.21391389e+00  5.73762959e+00
 -5.17609488e+00 -5.24136310e+00  3.44506856e+00 -5.17609488e+00 -5.24136310e+00
  3.44506856e+00  3.98110305e+00  2.68593958e+00 -5.29524476e+00  3.98110305e+00
  2.68593958e+00 -5.29524476e+00  4.83715306e+00  4.11912434e+00 -6.71027805e-01
  4.83715306e+00  4.11912434e+00 -6.71027805e-01  4.83715306e+00  4.11912434e+00
 -6.71027805e-01  4.83715306e+00  4.11912434e+00 -6.71027805e-01  4.83715306e+00
  4.11912434e+00 -6.71027805e-01  4.83715306e+00  4.11912434e+00 -6.71027805e-01
  4.83715306e+00  4.11912434e+00 -6.71027805e-01  4.83715306e+00  4.11912434e+00
 -6.71027805e-01
Total Energy                               R     -5.047969830532836e+02
Alpha Orbital Energies                     R   N=         233
 -2.47233557e+01 -1.43276534e+01 -1.02830233e+01 -1.02273364e+01 -1.02169031e+01
 -1.02111555e+01 -1.02065110e+01 -1.02054560e+01 -1.02023066e+01 -1.01997238e+01
 -1.01798558e+01 -1.22702900e+00 -8.97940919e-01 -8.73162032e-01 -7.93137176e-01
 -7.59444816e-01 -7.41107874e-01 -6.96533543e-01 -6.26122129e-01 -6.18698839e-01
 -5.87352345e-01 -5.38130313e-01 -5.10277309e-01 -5.04178982e-01 -4.95202380e-01
 -4.70992289e-01 -4.62921376e-01 -4.53784529e-01 -4.40267190e-01 -4.23290685e-01
 -4.16257403e-01 -3.91561245e-01 -3.81347557e-01 -3.74565287e-01 -3.72986291e-01
 -3.56771184e-01 -3.48569265e-01 -3.43947933e-01 -2.69550093e-01 -2.56433688e-01
 -2.41253773e-01 -2.64641850e-02 -1.78891611e-02 -3.74328233e-03  8.41698504e-03
  1.68284704e-02  2.61169128e-02  3.08755143e-02  3.33027309e-02  4.54119127e-02
  5.42652512e-02  5.49681279e-02  6.36044309e-02  6.86469217e-02  8.00144598e-02
  8.92881929e-02  9.22482104e-02  9.78788774e-02  1.02538135e-01  1.07399264e-01
  1.17112280e-01  1.23267656e-01  1.25385134e-01  1.31828436e-01  1.36858742e-01
  1.42009049e-01  1.44502598e-01  1.55597090e-01  1.57553613e-01  1.62270221e-01
  1.72877032e-01  1.75583113e-01  1.76973014e-01  1.89813807e-01  1.95547144e-01
  1.96357934e-01  2.00158297e-01  2.05965300e-01  2.08006164e-01  2.15791490e-01
  2.22161360e-01  2.29939599e-01  2.35187584e-01  2.36174730e-01  2.44542162e-01
  2.47835726e-01  2.53475391e-01  2.61589075e-01  2.69622592e-01  2.75299831e-01
  2.76564851e-01  2.85939253e-01  2.94114945e-01  3.03593474e-01  3.07801037e-01
  3.16591317e-01  3.24423221e-01  3.25194917e-01  3.45471536e-01  3.56446841e-01
  3.61469469e-01  3.63902280e-01  3.74554012e-01  3.78627202e-01  3.92365415e-01
  4.00945855e-01  4.20999921e-01  4.53167007e-01  4.62102508e-01  5.68811574e-01
  5.94959638e-01  6.36784072e-01  6.45068903e-01  6.66018217e-01  6.75404610e-01
  6.80792521e-01  6.86581088e-01  6.99683096e-01  7.18342661e-01  7.28106906e-01
  7.35860327e-01  7.51867413e-01  7.57424668e-01  7.69501140e-01  7.78044159e-01
  7.85333506e-01  7.90608096e-01  8.15826876e-01  8.27299084e-01  8.76916237e-01
  8.82688180e-01  8.89071795e-01  9.24446564e-01  9.28822288e-01  9.44795832e-01
  9.49532002e-01  9.74604455e-01  9.85549273e-01  1.00008546e+00  1.01025529e+00
  1.02025734e+00  1.03676144e+00  1.05107247e+00  1.06328429e+00  1.06615813e+00
  1.08552894e+00  1.11448828e+00  1.13043014e+00  1.14886974e+00  1.15353854e+00
  1.17611803e+00  1.18845409e+00  1.19788233e+00  1.22864619e+00  1.23872406e+00
  1.24706730e+00  1.29824108e+00  1.32696931e+00  1.33541185e+00  1.38999379e+00
  1.40324079e+00  1.43744587e+00  1.45537922e+00  1.45896244e+00  1.48189385e+00
  1.48630544e+00  1.56093687e+00  1.56413321e+00  1.62226518e+00  1.64221089e+00
  1.68451907e+00  1.71505063e+00  1.73011025e+00  1.78597259e+00  1.79836431e+00
  1.81927115e+00  1.82357399e+00  1.83146477e+00  1.84141363e+00  1.86060273e+00
  1.88130774e+00  1.91750110e+00  1.93117836e+00  1.95543602e+00  1.97331077e+00
  1.98955223e+00  2.00159079e+00  2.01649499e+00  2.05306357e+00  2.07433696e+00
  2.10381591e+00  2.13124361e+00  2.16461890e+00  2.17458795e+00  2.19996905e+00
  2.21255709e+00  2.21425008e+00  2.23276727e+00  2.26304356e+00  2.28290405e+00
  2.31234177e+00  2.32627444e+00  2.33788451e+00  2.40699956e+00  2.42737633e+00
  2.51151193e+00  2.52659833e+00  2.56960594e+00  2.58452530e+00  2.60230114e+00
  2.63025401e+00  2.65535045e+00  2.71733558e+00  2.74500391e+00  2.74785911e+00
  2.78257690e+00  2.82205073e+00  2.89429603e+00  2.96408402e+00  3.14597169e+00
  3.21131361e+00  3.43477818e+00  3.98202499e+00  4.22946111e+00  4.24542179e+00
  4.26342222e+00  4.30885398e+00  4.37526519e+00  4.42166862e+00  4.49128358e+00
  4.60624432e+00  4.73924446e+00  5.97602019e+00
Alpha MO coefficients                      R   N=       54289
 -1.18896557e-05 -5.66876807e-05  9.84827617e-06  8.46484139e-06 -1.39579639e-05
  1.76690181e-03  4.89032249e-04  5.69254051e-04 -1.24276657e-04 -1.03983714e-05
 -1.35331110e-05 -1.35011074e-05 -5.07932923e-07 -1.11460860e-05 -1.22889866e-05
  6.17990534e-03  4.44882395e-05  2.22998758e-04  2.70813909e-03  7.07330077e-06
  3.35980765e-05  3.87560195e-06  4.82653988e-06 -2.93385996e-06 -1.05798665e-04
 -9.18180582e-05 -1.20741792e-04 -1.04641419e-05  3.20798254e-06  4.14325091e-06
  1.30778109e-05 -1.00091948e-05  6.21787088e-06  1.04969986e-05 -4.95056695e-03
 -7.81157679e-04 -8.39279170e-04  5.17314549e-04  1.47145118e-06  1.34602385e-06
  6.98842194e-07 -2.81067465e-07 -1.87649413e-06 -9.85166723e-06  1.22942896e-05
  2.27695976e-05  1.17901766e-05  6.81556422e-06  2.13499230e-06  5.87401197e-06
  4.22843702e-06 -1.58205925e-06 -1.34579381e-06  1.13127695e-03 -3.31862880e-05
  2.68120483e-04  3.19722247e-04  6.70222770e-06  5.68531897e-05 -3.34437807e-06
  1.01076437e-07  1.33419089e-06  4.62555919e-06  1.92023521e-06  3.33885918e-06
 -1.30151869e-07 -1.25754970e-05 -1.14318649e-05 -1.94532576e-05 -4.60538019e-06
  2.30960336e-06  2.49843061e-06  3.48061532e-06 -1.83138079e-06  1.74897120e-06
  1.53399257e-06 -2.50226529e-04 -3.07156872e-05  3.85188265e-05 -9.75313443e-06
  2.03173312e-05 -1.95429805e-05 -2.45858190e-05 -3.36944633e-05 -2.64802518e-05
 -1.94520269e-03  5.50899940e-04  7.87256306e-04  1.53619529e-03  7.86853011e-05
  9.33140951e-05  3.62649774e-05  5.76330511e-05 -6.51493375e-06 -7.35088992e-06
 -1.02135907e-02  3.84396939e-04  6.15599590e-04  2.04143941e-03  3.39552539e-05
  1.60015584e-05 -3.95319082e-04 -4.77001968e-04 -1.65652889e-04  4.29372405e-04
 -1.92476097e-03 -2.32084476e-03 -9.01716205e-04 -2.76860843e-04 -4.49146231e-04
  2.83693778e-05 -5.40871295e-04 -1.81926293e-04 -2.20704551e-04  1.04783442e-02
 -2.46744225e-03 -2.99573613e-03 -8.95797244e-04  2.13927273e-05 -1.65163381e-05
 -3.05779793e-05 -3.54749282e-05  3.64193007e-06 -1.94790654e-03  9.58315094e-04
  1.01398403e-03 -1.08399783e-03  6.61840251e-05  8.30955246e-05  6.78844637e-05
  4.28453464e-05  3.65902019e-05  4.60843703e-05 -6.03030884e-03  6.44242056e-04
  6.38464878e-04 -1.72077233e-03 -8.11278903e-06 -3.14629514e-05  8.79282564e-06
  1.04037905e-05  1.42606988e-05  1.54296424e-03  2.04220307e-04  3.06135816e-04
  6.19685184e-04 -1.28926683e-05 -1.64217180e-05 -1.02916918e-05 -1.29084486e-05
  7.38415548e-07  7.87726666e-07  5.51016310e-03 -6.82436016e-04 -7.47394469e-04
  1.29455724e-03  9.09423719e-06  4.29149749e-05  9.09218955e-06  1.26247730e-05
  3.72533060e-06 -7.49383018e-04 -3.96011442e-04 -4.81057823e-04 -7.11875034e-05
  1.18541825e-05  9.42187687e-06  6.57229424e-06 -7.94801543e-06  1.40281948e-06
  4.89548827e-07 -2.20978696e-03 -6.63306520e-04 -5.23938258e-04  1.36995534e-03
  1.81466801e-06  5.54713779e-06  8.34727966e-07  5.81344086e-06 -7.41280616e-06
 -5.55050220e-05 -8.92064814e-06 -2.15844000e-05  4.72633229e-05  3.07915644e-06
  3.57815068e-06  4.02028262e-06 -2.08832873e-06  1.91068702e-06  1.78169543e-06
 -8.33828086e-04  4.24553701e-05  2.65478853e-04 -3.51706349e-05  2.13807651e-07
  1.80419763e-05  2.54164243e-06 -4.06907940e-05 -1.36725038e-06  1.30654588e-05
  2.55930216e-06  2.85621823e-05 -8.00110145e-05 -7.50901197e-04  8.01414744e-06
  1.00801255e-04 -2.31852317e-05 -1.85386314e-04  1.62521292e-06  2.08174153e-05
 -3.13711503e-06  2.10388003e-05 -7.92225265e-05 -7.55543237e-04 -9.92695579e-01
 -1.82405503e-02  5.77329114e-04  6.95605944e-04  2.39214126e-04 -1.97044014e-02
 -1.12263075e-03 -1.35508057e-03 -4.63269967e-04  9.46374443e-03  9.58890820e-03
  9.20644271e-03  3.87626419e-04  1.39634390e-04  1.65314501e-04  5.32691803e-03
 -1.86969553e-05 -6.03292786e-06  9.27393106e-06  1.57567814e-06  1.54909932e-05
 -6.84769881e-06 -5.92605885e-06  1.43293804e-05 -3.23108324e-05  2.85076242e-04
  2.32627809e-04 -5.44037299e-04 -4.40312825e-06 -1.09144646e-06 -6.34286542e-06
 -1.21828044e-05  1.83640343e-05  1.66860644e-05  7.55056420e-03 -1.45724538e-04
 -6.98111553e-04  1.62451058e-03 -4.50824434e-06 -8.88430458e-05 -4.53107555e-05
 -2.04838482e-05  2.36566261e-05  6.81837119e-04  7.99013387e-05  3.12739778e-04
 -2.22255994e-04  5.01671440e-05  1.31528550e-05  3.63571113e-05  2.17919117e-05
 -3.79824380e-05 -2.02830677e-05 -5.75231333e-03 -1.64289487e-03 -9.61918744e-04
  2.46993981e-03  2.36527509e-05  1.67138103e-05  1.42973401e-04  1.46301751e-04
 -1.57635042e-04 -6.03619093e-04 -1.70206069e-04  1.70341227e-04 -2.60579191e-04
  1.34373880e-06 -3.26851618e-05 -2.45122244e-05 -6.13843249e-05  8.17198487e-05
  9.70494434e-05 -7.30025991e-03  1.12269172e-03  6.23930838e-05 -2.30557468e-03
 -3.15437201e-05  1.64754326e-04 -1.22212890e-05  2.03152058e-04 -9.92657356e-01