Generated by Psi4
     FORCE                           RHF                       TESTBAS
Number of atoms                            I               28
Charge                                     I                0
Multiplicity                               I                1
Number of electrons                        I               96
Number of alpha electrons                  I               48
Number of beta electrons                   I               48
Number of basis functions                  I              277
Number of independent functions            I              277
Atomic numbers                             I   N=          28
           6           6           6           7           6           6
           6           6           6           1           1           6
           1           6           1           8           6           1
           1           1           1           1           1           1
           1           1           1           1
Nuclear charges                            R   N=          28
  6.00000000e+00  6.00000000e+00  6.00000000e+00  7.00000000e+00  6.00000000e+00
  6.00000000e+00  6.00000000e+00  6.00000000e+00  6.00000000e+00  1.00000000e+00
  1.00000000e+00  6.00000000e+00  1.00000000e+00  6.00000000e+00  1.00000000e+00
  8.00000000e+00  6.00000000e+00  1.00000000e+00  1.00000000e+00  1.00000000e+00
  1.00000000e+00  1.00000000e+00  1.00000000e+00  1.00000000e+00  1.00000000e+00
  1.00000000e+00  1.00000000e+00  1.00000000e+00
Current cartesian coordinates              R   N=          84
  1.99635184e-01 -9.50940801e-02 -5.83560746e-01 -2.29561863e+00  1.13813107e+00
 -3.54597241e-02 -2.84944634e+00  2.53607548e+00  2.47121826e+00 -2.20948562e+00
  1.06821368e+00  4.73055221e+00  2.13780377e+00 -3.62462067e-01  1.20958829e+00
  4.41564764e+00 -1.50216541e+00  5.11234598e-01  4.77608807e+00 -2.37314135e+00
 -1.95001041e+00  2.86075516e+00 -2.13307835e+00 -3.77636960e+00  5.94100063e-01
 -9.92900874e-01 -3.05838042e+00  1.82987139e+00  2.64475108e-01  3.13413172e+00
  5.91397041e+00 -1.71549604e+00  1.90089993e+00 -1.46155693e+00  5.08939622e+00
  2.50445601e+00 -4.89841429e+00  2.91450500e+00  2.36545902e+00 -3.80973301e+00
 -1.15594925e+00  5.11255927e+00 -2.33867012e+00  2.22393278e+00  6.26426790e+00
 -3.95117698e+00  1.18149572e+00 -1.65653690e+00  3.25790981e+00 -3.09723274e+00
 -6.43745179e+00 -9.26887908e-01 -7.68040602e-01 -4.41804525e+00 -3.43223079e+00
 -2.55103053e+00  3.62959224e+00 -5.85308996e+00 -7.28977100e-01  5.08245011e+00
 -3.33961938e+00 -2.02740730e+00  6.92887491e+00  5.90718381e-01  4.84035334e+00
  2.56712152e+00 -2.03784417e+00  6.18477345e+00  4.16920184e+00 -1.94316510e+00
  6.19787327e+00  8.25103514e-01  6.56165063e+00 -3.25494939e+00 -2.46692978e+00
  4.94948556e+00 -2.26262507e+00 -7.29924246e+00  1.64171841e+00 -2.64811677e+00
 -7.64822407e+00  3.51202272e+00 -5.15625180e+00 -6.46173581e+00
Integer atomic weights                     I   N=          28
          12          12          12          14          12          12
          12          12          12           1           1          12
           1          12           1          15          12           1
           1           1           1           1           1           1
           1           1           1           1
Real atomic weights                        R   N=          28
  1.20000000e+01  1.20000000e+01  1.20000000e+01  1.40030740e+01  1.20000000e+01
  1.20000000e+01  1.20000000e+01  1.20000000e+01  1.20000000e+01  1.00782503e+00
  1.00782503e+00  1.20000000e+01  1.00782503e+00  1.20000000e+01  1.00782503e+00
  1.59949146e+01  1.20000000e+01  1.00782503e+00  1.00782503e+00  1.00782503e+00
  1.00782503e+00  1.00782503e+00  1.00782503e+00  1.00782503e+00  1.00782503e+00
  1.00782503e+00  1.00782503e+00  1.00782503e+00
Number of primitive shells                 I              281
Number of contracted shells                I              134
Pure/Cartesian d shells                    I                1
Pure/Cartesian f shells                    I                1
Highest angular momentum                   I                2
Largest degree of contraction              I                6
Shell types                                I   N=         134
           0           0           1           0           1           2
           0           1           0           0           1           0
           1           2           0           1           0           0
           1           0           1           2           0           1
           0           0           1           0           1           2
           0           1           0           0           1           0
           1           2           0           1           0           0
           1           0           1           2           0           1
           0           0           1           0           1           2
           0           1           0           0           1           0
           1           2           0           1           0           0
           1           0           1           2           0           1
           0           0           0           0           0           0
           1           0           1           2           0           1
           0           0           0           0           1           0
           1           2           0           1           0           0
           0           0           1           0           1           2
           0           1           0           0           1           0
           1           2           0           1           0           0
           0           0           0           0           0           0
           0           0           0           0           0           0
           0           0           0           0           0           0
           0           0
Number of primitives per shell             I   N=         134
           6           3           3           1           1           1
           1           1           6           3           3           1
           1           1           1           1           6           3
           3           1           1           1           1           1
           6           3           3           1           1           1
           1           1           6           3           3           1
           1           1           1           1           6           3
           3           1           1           1           1           1
           6           3           3           1           1           1
           1           1           6           3           3           1
           1           1           1           1           6           3
           3           1           1           1           1           1
           3           1           3           1           6           3
           3           1           1           1           1           1
           3           1           6           3           3           1
           1           1           1           1           3           1
           6           3           3           1           1           1
           1           1           6           3           3           1
           1           1           1           1           3           1
           3           1           3           1           3           1
           3           1           3           1           3           1
           3           1           3           1           3           1
           3           1
Shell to atom map                          I   N=         134
           1           1           1           1           1           1
           1           1           2           2           2           2
           2           2           2           2           3           3
           3           3           3           3           3           3
           4           4           4           4           4           4
           4           4           5           5           5           5
           5           5           5           5           6           6
           6           6           6           6           6           6
           7           7           7           7           7           7
           7           7           8           8           8           8
           8           8           8           8           9           9
           9           9           9           9           9           9
          10          10          11          11          12          12
          12          12          12          12          12          12
          13          13          14          14          14          14
          14          14          14          14          15          15
          16          16          16          16          16          16
          16          16          17          17          17          17
          17          17          17          17          18          18
          19          19          20          20          21          21
          22          22          23          23          24          24
          25          25          26          26          27          27
          28          28
Primitive exponents                        R   N=         281
  3.04752490e+03  4.57369510e+02  1.03948690e+02  2.92101550e+01  9.28666300e+00
  3.16392700e+00  7.86827240e+00  1.88128850e+00  5.44249300e-01  7.86827240e+00
  1.88128850e+00  5.44249300e-01  1.68714400e-01  1.68714400e-01  8.00000000e-01
  4.38000000e-02  4.38000000e-02  3.04752490e+03  4.57369510e+02  1.03948690e+02
  2.92101550e+01  9.28666300e+00  3.16392700e+00  7.86827240e+00  1.88128850e+00
  5.44249300e-01  7.86827240e+00  1.88128850e+00  5.44249300e-01  1.68714400e-01
  1.68714400e-01  8.00000000e-01  4.38000000e-02  4.38000000e-02  3.04752490e+03
  4.57369510e+02  1.03948690e+02  2.92101550e+01  9.28666300e+00  3.16392700e+00
  7.86827240e+00  1.88128850e+00  5.44249300e-01  7.86827240e+00  1.88128850e+00
  5.44249300e-01  1.68714400e-01  1.68714400e-01  8.00000000e-01  4.38000000e-02
  4.38000000e-02  4.17351100e+03  6.27457900e+02  1.42902100e+02  4.02343300e+01
  1.28202100e+01  4.39043700e+00  1.16263580e+01  2.71628000e+00  7.72218000e-01
  1.16263580e+01  2.71628000e+00  7.72218000e-01  2.12031300e-01  2.12031300e-01
  8.00000000e-01  6.39000000e-02  6.39000000e-02  3.04752490e+03  4.57369510e+02
  1.03948690e+02  2.92101550e+01  9.28666300e+00  3.16392700e+00  7.86827240e+00
  1.88128850e+00  5.44249300e-01  7.86827240e+00  1.88128850e+00  5.44249300e-01
  1.68714400e-01  1.68714400e-01  8.00000000e-01  4.38000000e-02  4.38000000e-02
  3.04752490e+03  4.57369510e+02  1.03948690e+02  2.92101550e+01  9.28666300e+00
  3.16392700e+00  7.86827240e+00  1.88128850e+00  5.44249300e-01  7.86827240e+00
  1.88128850e+00  5.44249300e-01  1.68714400e-01  1.68714400e-01  8.00000000e-01
  4.38000000e-02  4.38000000e-02  3.04752490e+03  4.57369510e+02  1.03948690e+02
  2.92101550e+01  9.28666300e+00  3.16392700e+00  7.86827240e+00  1.88128850e+00
  5.44249300e-01  7.86827240e+00  1.88128850e+00  5.44249300e-01  1.68714400e-01
  1.68714400e-01  8.00000000e-01  4.38000000e-02  4.38000000e-02  3.04752490e+03
  4.57369510e+02  1.03948690e+02  2.92101550e+01  9.28666300e+00  3.16392700e+00
  7.86827240e+00  1.88128850e+00  5.44249300e-01  7.86827240e+00  1.88128850e+00
  5.44249300e-01  1.68714400e-01  1.68714400e-01  8.00000000e-01  4.38000000e-02
  4.38000000e-02  3.04752490e+03  4.57369510e+02  1.03948690e+02  2.92101550e+01
  9.28666300e+00  3.16392700e+00  7.86827240e+00  1.88128850e+00  5.44249300e-01
  7.86827240e+00  1.88128850e+00  5.44249300e-01  1.68714400e-01  1.68714400e-01
  8.00000000e-01  4.38000000e-02  4.38000000e-02  1.87311370e+01  2.82539370e+00
  6.40121700e-01  1.61277800e-01  1.87311370e+01  2.82539370e+00  6.40121700e-01
  1.61277800e-01  3.04752490e+03  4.57369510e+02  1.03948690e+02  2.92101550e+01
  9.28666300e+00  3.16392700e+00  7.86827240e+00  1.88128850e+00  5.44249300e-01
  7.86827240e+00  1.88128850e+00  5.44249300e-01  1.68714400e-01  1.68714400e-01
  8.00000000e-01  4.38000000e-02  4.38000000e-02  1.87311370e+01  2.82539370e+00
  6.40121700e-01  1.61277800e-01  3.04752490e+03  4.57369510e+02  1.03948690e+02
  2.92101550e+01  9.28666300e+00  3.16392700e+00  7.86827240e+00  1.88128850e+00
  5.44249300e-01  7.86827240e+00  1.88128850e+00  5.44249300e-01  1.68714400e-01
  1.68714400e-01  8.00000000e-01  4.38000000e-02  4.38000000e-02  1.87311370e+01
  2.82539370e+00  6.40121700e-01  1.61277800e-01  5.48467170e+03  8.25234950e+02
  1.88046960e+02  5.29645000e+01  1.68975700e+01  5.79963530e+00  1.55396160e+01
  3.59993360e+00  1.01376180e+00  1.55396160e+01  3.59993360e+00  1.01376180e+00
  2.70005800e-01  2.70005800e-01  8.00000000e-01  8.45000000e-02  8.45000000e-02
  3.04752490e+03  4.57369510e+02  1.03948690e+02  2.92101550e+01  9.28666300e+00
  3.16392700e+00  7.86827240e+00  1.88128850e+00  5.44249300e-01  7.86827240e+00
  1.88128850e+00  5.44249300e-01  1.68714400e-01  1.68714400e-01  8.00000000e-01
  4.38000000e-02  4.38000000e-02  1.87311370e+01  2.82539370e+00  6.40121700e-01
  1.61277800e-01  1.87311370e+01  2.82539370e+00  6.40121700e-01  1.61277800e-01
  1.87311370e+01  2.82539370e+00  6.40121700e-01  1.61277800e-01  1.87311370e+01
  2.82539370e+00  6.40121700e-01  1.61277800e-01  1.87311370e+01  2.82539370e+00
  6.40121700e-01  1.61277800e-01  1.87311370e+01  2.82539370e+00  6.40121700e-01
  1.61277800e-01  1.87311370e+01  2.82539370e+00  6.40121700e-01  1.61277800e-01
  1.87311370e+01  2.82539370e+00  6.40121700e-01  1.61277800e-01  1.87311370e+01
  2.82539370e+00  6.40121700e-01  1.61277800e-01  1.87311370e+01  2.82539370e+00
  6.40121700e-01  1.61277800e-01  1.87311370e+01  2.82539370e+00  6.40121700e-01
  1.61277800e-01
Contraction coefficients                   R   N=         281
  1.83470016e-03  1.40373012e-02  6.88426061e-02  2.32184421e-01  4.67941342e-01
  3.62312032e-01 -1.19332409e-01 -1.60854212e-01  1.14345648e+00  6.89990956e-02
  3.16423980e-01  7.44308252e-01  1.00000000e+00  1.00000000e+00  1.00000000e+00
  1.00000000e+00  1.00000000e+00  1.83470016e-03  1.40373012e-02  6.88426061e-02
  2.32184421e-01  4.67941342e-01  3.62312032e-01 -1.19332409e-01 -1.60854212e-01
  1.14345648e+00  6.89990956e-02  3.16423980e-01  7.44308252e-01  1.00000000e+00
  1.00000000e+00  1.00000000e+00  1.00000000e+00  1.00000000e+00  1.83470016e-03
  1.40373012e-02  6.88426061e-02  2.32184421e-01  4.67941342e-01  3.62312032e-01
 -1.19332409e-01 -1.60854212e-01  1.14345648e+00  6.89990956e-02  3.16423980e-01
  7.44308252e-01  1.00000000e+00  1.00000000e+00  1.00000000e+00  1.00000000e+00
  1.00000000e+00  1.83479944e-03  1.39949958e-02  6.85869792e-02  2.32240930e-01
  4.69069858e-01  3.60454891e-01 -1.14961023e-01 -1.69118034e-01  1.14585223e+00
  6.75800232e-02  3.23907111e-01  7.40895255e-01  1.00000000e+00  1.00000000e+00
  1.00000000e+00  1.00000000e+00  1.00000000e+00  1.83470016e-03  1.40373012e-02
  6.88426061e-02  2.32184421e-01  4.67941342e-01  3.62312032e-01 -1.19332409e-01
 -1.60854212e-01  1.14345648e+00  6.89990956e-02  3.16423980e-01  7.44308252e-01
  1.00000000e+00  1.00000000e+00  1.00000000e+00  1.00000000e+00  1.00000000e+00
  1.83470016e-03  1.40373012e-02  6.88426061e-02  2.32184421e-01  4.67941342e-01
  3.62312032e-01 -1.19332409e-01 -1.60854212e-01  1.14345648e+00  6.89990956e-02
  3.16423980e-01  7.44308252e-01  1.00000000e+00  1.00000000e+00  1.00000000e+00
  1.00000000e+00  1.00000000e+00  1.83470016e-03  1.40373012e-02  6.88426061e-02
  2.32184421e-01  4.67941342e-01  3.62312032e-01 -1.19332409e-01 -1.60854212e-01
  1.14345648e+00  6.89990956e-02  3.16423980e-01  7.44308252e-01  1.00000000e+00
  1.00000000e+00  1.00000000e+00  1.00000000e+00  1.00000000e+00  1.83470016e-03
  1.40373012e-02  6.88426061e-02  2.32184421e-01  4.67941342e-01  3.62312032e-01
 -1.19332409e-01 -1.60854212e-01  1.14345648e+00  6.89990956e-02  3.16423980e-01
  7.44308252e-01  1.00000000e+00  1.00000000e+00  1.00000000e+00  1.00000000e+00
  1.00000000e+00  1.83470016e-03  1.40373012e-02  6.88426061e-02  2.32184421e-01
  4.67941342e-01  3.62312032e-01 -1.19332409e-01 -1.60854212e-01  1.14345648e+00
  6.89990956e-02  3.16423980e-01  7.44308252e-01  1.00000000e+00  1.00000000e+00
  1.00000000e+00  1.00000000e+00  1.00000000e+00  3.34945995e-02  2.34726947e-01
  8.13757318e-01  1.00000000e+00  3.34945995e-02  2.34726947e-01  8.13757318e-01
  1.00000000e+00  1.83470016e-03  1.40373012e-02  6.88426061e-02  2.32184421e-01
  4.67941342e-01  3.62312032e-01 -1.19332409e-01 -1.60854212e-01  1.14345648e+00
  6.89990956e-02  3.16423980e-01  7.44308252e-01  1.00000000e+00  1.00000000e+00
  1.00000000e+00  1.00000000e+00  1.00000000e+00  3.34945995e-02  2.34726947e-01
  8.13757318e-01  1.00000000e+00  1.83470016e-03  1.40373012e-02  6.88426061e-02
  2.32184421e-01  4.67941342e-01  3.62312032e-01 -1.19332409e-01 -1.60854212e-01
  1.14345648e+00  6.89990956e-02  3.16423980e-01  7.44308252e-01  1.00000000e+00
  1.00000000e+00  1.00000000e+00  1.00000000e+00  1.00000000e+00  3.34945995e-02
  2.34726947e-01  8.13757318e-01  1.00000000e+00  1.83109981e-03  1.39500985e-02
  6.84450927e-02  2.32714275e-01  4.70192950e-01  3.58520862e-01 -1.10777504e-01
 -1.48026305e-01  1.13076704e+00  7.08742995e-02  3.39752798e-01  7.27158595e-01
  1.00000000e+00  1.00000000e+00  1.00000000e+00  1.00000000e+00  1.00000000e+00
  1.83470016e-03  1.40373012e-02  6.88426061e-02  2.32184421e-01  4.67941342e-01
  3.62312032e-01 -1.19332409e-01 -1.60854212e-01  1.14345648e+00  6.89990956e-02
  3.16423980e-01  7.44308252e-01  1.00000000e+00  1.00000000e+00  1.00000000e+00
  1.00000000e+00  1.00000000e+00  3.34945995e-02  2.34726947e-01  8.13757318e-01
  1.00000000e+00  3.34945995e-02  2.34726947e-01  8.13757318e-01  1.00000000e+00
  3.34945995e-02  2.34726947e-01  8.13757318e-01  1.00000000e+00  3.34945995e-02
  2.34726947e-01  8.13757318e-01  1.00000000e+00  3.34945995e-02  2.34726947e-01
  8.13757318e-01  1.00000000e+00  3.34945995e-02  2.34726947e-01  8.13757318e-01
  1.00000000e+00  3.34945995e-02  2.34726947e-01  8.13757318e-01  1.00000000e+00
  3.34945995e-02  2.34726947e-01  8.13757318e-01  1.00000000e+00  3.34945995e-02
  2.34726947e-01  8.13757318e-01  1.00000000e+00  3.34945995e-02  2.34726947e-01
  8.13757318e-01  1.00000000e+00  3.34945995e-02  2.34726947e-01  8.13757318e-01
  1.00000000e+00
Coordinates of each shell                  R   N=         402
  1.99635184e-01 -9.50940801e-02 -5.83560746e-01  1.99635184e-01 -9.50940801e-02
 -5.83560746e-01  1.99635184e-01 -9.50940801e-02 -5.83560746e-01  1.99635184e-01
 -9.50940801e-02 -5.83560746e-01  1.99635184e-01 -9.50940801e-02 -5.83560746e-01
  1.99635184e-01 -9.50940801e-02 -5.83560746e-01  1.99635184e-01 -9.50940801e-02
 -5.83560746e-01  1.99635184e-01 -9.50940801e-02 -5.83560746e-01 -2.29561863e+00
  1.13813107e+00 -3.54597241e-02 -2.29561863e+00  1.13813107e+00 -3.54597241e-02
 -2.29561863e+00  1.13813107e+00 -3.54597241e-02 -2.29561863e+00  1.13813107e+00
 -3.54597241e-02 -2.29561863e+00  1.13813107e+00 -3.54597241e-02 -2.29561863e+00
  1.13813107e+00 -3.54597241e-02 -2.29561863e+00  1.13813107e+00 -3.54597241e-02
 -2.29561863e+00  1.13813107e+00 -3.54597241e-02 -2.84944634e+00  2.53607548e+00
  2.47121826e+00 -2.84944634e+00  2.53607548e+00  2.47121826e+00 -2.84944634e+00
  2.53607548e+00  2.47121826e+00 -2.84944634e+00  2.53607548e+00  2.47121826e+00
 -2.84944634e+00  2.53607548e+00  2.47121826e+00 -2.84944634e+00  2.53607548e+00
  2.47121826e+00 -2.84944634e+00  2.53607548e+00  2.47121826e+00 -2.84944634e+00
  2.53607548e+00  2.47121826e+00 -2.20948562e+00  1.06821368e+00  4.73055221e+00
 -2.20948562e+00  1.06821368e+00  4.73055221e+00 -2.20948562e+00  1.06821368e+00
  4.73055221e+00 -2.20948562e+00  1.06821368e+00  4.73055221e+00 -2.20948562e+00
  1.06821368e+00  4.73055221e+00 -2.20948562e+00  1.06821368e+00  4.73055221e+00
 -2.20948562e+00  1.06821368e+00  4.73055221e+00 -2.20948562e+00  1.06821368e+00
  4.73055221e+00  2.13780377e+00 -3.62462067e-01  1.20958829e+00  2.13780377e+00
 -3.62462067e-01  1.20958829e+00  2.13780377e+00 -3.62462067e-01  1.20958829e+00
  2.13780377e+00 -3.62462067e-01  1.20958829e+00  2.13780377e+00 -3.62462067e-01
  1.20958829e+00  2.13780377e+00 -3.62462067e-01  1.20958829e+00  2.13780377e+00
 -3.62462067e-01  1.20958829e+00  2.13780377e+00 -3.62462067e-01  1.20958829e+00
  4.41564764e+00 -1.50216541e+00  5.11234598e-01  4.41564764e+00 -1.50216541e+00
  5.11234598e-01  4.41564764e+00 -1.50216541e+00  5.11234598e-01  4.41564764e+00
 -1.50216541e+00  5.11234598e-01  4.41564764e+00 -1.50216541e+00  5.11234598e-01
  4.41564764e+00 -1.50216541e+00  5.11234598e-01  4.41564764e+00 -1.50216541e+00
  5.11234598e-01  4.41564764e+00 -1.50216541e+00  5.11234598e-01  4.77608807e+00
 -2.37314135e+00 -1.95001041e+00  4.77608807e+00 -2.37314135e+00 -1.95001041e+00
  4.77608807e+00 -2.37314135e+00 -1.95001041e+00  4.77608807e+00 -2.37314135e+00
 -1.95001041e+00  4.77608807e+00 -2.37314135e+00 -1.95001041e+00  4.77608807e+00
 -2.37314135e+00 -1.95001041e+00  4.77608807e+00 -2.37314135e+00 -1.95001041e+00
  4.77608807e+00 -2.37314135e+00 -1.95001041e+00  2.86075516e+00 -2.13307835e+00
 -3.77636960e+00  2.86075516e+00 -2.13307835e+00 -3.77636960e+00  2.86075516e+00
 -2.13307835e+00 -3.77636960e+00  2.86075516e+00 -2.13307835e+00 -3.77636960e+00
  2.86075516e+00 -2.13307835e+00 -3.77636960e+00  2.86075516e+00 -2.13307835e+00
 -3.77636960e+00  2.86075516e+00 -2.13307835e+00 -3.77636960e+00  2.86075516e+00
 -2.13307835e+00 -3.77636960e+00  5.94100063e-01 -9.92900874e-01 -3.05838042e+00
  5.94100063e-01 -9.92900874e-01 -3.05838042e+00  5.94100063e-01 -9.92900874e-01
 -3.05838042e+00  5.94100063e-01 -9.92900874e-01 -3.05838042e+00  5.94100063e-01
 -9.92900874e-01 -3.05838042e+00  5.94100063e-01 -9.92900874e-01 -3.05838042e+00
  5.94100063e-01 -9.92900874e-01 -3.05838042e+00  5.94100063e-01 -9.92900874e-01
 -3.05838042e+00  1.82987139e+00  2.64475108e-01  3.13413172e+00  1.82987139e+00
  2.64475108e-01  3.13413172e+00  5.91397041e+00 -1.71549604e+00  1.90089993e+00
  5.91397041e+00 -1.71549604e+00  1.90089993e+00 -1.46155693e+00  5.08939622e+00
  2.50445601e+00 -1.46155693e+00  5.08939622e+00  2.50445601e+00 -1.46155693e+00
  5.08939622e+00  2.50445601e+00 -1.46155693e+00  5.08939622e+00  2.50445601e+00
 -1.46155693e+00  5.08939622e+00  2.50445601e+00 -1.46155693e+00  5.08939622e+00
  2.50445601e+00 -1.46155693e+00  5.08939622e+00  2.50445601e+00 -1.46155693e+00
  5.08939622e+00  2.50445601e+00 -4.89841429e+00  2.91450500e+00  2.36545902e+00
 -4.89841429e+00  2.91450500e+00  2.36545902e+00 -3.80973301e+00 -1.15594925e+00
  5.11255927e+00 -3.80973301e+00 -1.15594925e+00  5.11255927e+00 -3.80973301e+00
 -1.15594925e+00  5.11255927e+00 -3.80973301e+00 -1.15594925e+00  5.11255927e+00
 -3.80973301e+00 -1.15594925e+00  5.11255927e+00 -3.80973301e+00 -1.15594925e+00
  5.11255927e+00 -3.80973301e+00 -1.15594925e+00  5.11255927e+00 -3.80973301e+00
 -1.15594925e+00  5.11255927e+00 -2.33867012e+00  2.22393278e+00  6.26426790e+00
 -2.33867012e+00  2.22393278e+00  6.26426790e+00 -3.95117698e+00  1.18149572e+00
 -1.65653690e+00 -3.95117698e+00  1.18149572e+00 -1.65653690e+00 -3.95117698e+00
  1.18149572e+00 -1.65653690e+00 -3.95117698e+00  1.18149572e+00 -1.65653690e+00
 -3.95117698e+00  1.18149572e+00 -1.65653690e+00 -3.95117698e+00  1.18149572e+00
 -1.65653690e+00 -3.95117698e+00  1.18149572e+00 -1.65653690e+00 -3.95117698e+00
  1.18149572e+00 -1.65653690e+00  3.25790981e+00 -3.09723274e+00 -6.43745179e+00
  3.25790981e+00 -3.09723274e+00 -6.43745179e+00  3.25790981e+00 -3.09723274e+00
 -6.43745179e+00  3.25790981e+00 -3.09723274e+00 -6.43745179e+00  3.25790981e+00
 -3.09723274e+00 -6.43745179e+00  3.25790981e+00 -3.09723274e+00 -6.43745179e+00
  3.25790981e+00 -3.09723274e+00 -6.43745179e+00  3.25790981e+00 -3.09723274e+00
 -6.43745179e+00 -9.26887908e-01 -7.68040602e-01 -4.41804525e+00 -9.26887908e-01
 -7.68040602e-01 -4.41804525e+00 -3.43223079e+00 -2.55103053e+00  3.62959224e+00
 -3.43223079e+00 -2.55103053e+00  3.62959224e+00 -5.85308996e+00 -7.28977100e-01
  5.08245011e+00 -5.85308996e+00 -7.28977100e-01  5.08245011e+00 -3.33961938e+00
 -2.02740730e+00  6.92887491e+00 -3.33961938e+00 -2.02740730e+00  6.92887491e+00
  5.90718381e-01  4.84035334e+00  2.56712152e+00  5.90718381e-01  4.84035334e+00
  2.56712152e+00 -2.03784417e+00  6.18477345e+00  4.16920184e+00 -2.03784417e+00
  6.18477345e+00  4.16920184e+00 -1.94316510e+00  6.19787327e+00  8.25103514e-01
 -1.94316510e+00  6.19787327e+00  8.25103514e-01  6.56165063e+00 -3.25494939e+00
 -2.46692978e+00  6.56165063e+00 -3.25494939e+00 -2.46692978e+00  4.94948556e+00
 -2.26262507e+00 -7.29924246e+00  4.94948556e+00 -2.26262507e+00 -7.29924246e+00
  1.64171841e+00 -2.64811677e+00 -7.64822407e+00  1.64171841e+00 -2.64811677e+00
 -7.64822407e+00  3.51202272e+00 -5.15625180e+00 -6.46173581e+00  3.51202272e+00
 -5.15625180e+00 -6.46173581e+00
Total Energy                               R     -5.581960238606792e+02
Alpha Orbital Energies                     R   N=         277
 -1.91447805e+01 -1.43377176e+01 -1.02787076e+01 -1.02287305e+01 -1.02115493e+01
 -1.02081748e+01 -1.02044061e+01 -1.02025366e+01 -1.01999453e+01 -1.01969356e+01
 -1.01957148e+01 -1.01929693e+01 -1.01902935e+01 -1.04242012e+00 -9.18172977e-01
 -8.65264517e-01 -7.84999280e-01 -7.68111719e-01 -7.57143683e-01 -6.93092986e-01
 -6.70483250e-01 -6.59526795e-01 -6.18347551e-01 -5.98989014e-01 -5.41227104e-01
 -5.08257271e-01 -4.95312657e-01 -4.79346163e-01 -4.71475473e-01 -4.55485705e-01
 -4.43509500e-01 -4.32005439e-01 -4.27806652e-01 -4.24718079e-01 -4.11944959e-01
 -4.06551817e-01 -3.94200749e-01 -3.90011599e-01 -3.81062153e-01 -3.74424161e-01
 -3.63625817e-01 -3.56210413e-01 -3.45659205e-01 -3.45104482e-01 -2.60084247e-01
 -2.56248473e-01 -2.52148963e-01 -2.36398673e-01 -6.50862092e-02 -1.27642448e-02
 -1.57430735e-03  8.90197905e-03  1.57103100e-02  1.99476745e-02  2.40787458e-02
  3.07661616e-02  3.30077790e-02  4.38751423e-02  5.15388741e-02  5.47389345e-02
  5.90655966e-02  6.30851779e-02  6.74475348e-02  6.81126095e-02  8.00569024e-02
  8.46445439e-02  8.87098666e-02  9.37790712e-02  9.88786472e-02  1.05288814e-01
  1.13782241e-01  1.22972570e-01  1.26546630e-01  1.30993028e-01  1.31259823e-01
  1.35282556e-01  1.43328007e-01  1.47637720e-01  1.55570780e-01  1.59115321e-01
  1.64177431e-01  1.71928184e-01  1.77202755e-01  1.79796841e-01  1.82995642e-01
  1.86330177e-01  1.89845306e-01  1.98692467e-01  2.00110958e-01  2.03927877e-01
  2.14253989e-01  2.18512438e-01  2.24518244e-01  2.27246728e-01  2.35167479e-01
  2.35912445e-01  2.39428941e-01  2.44303409e-01  2.48151626e-01  2.49994551e-01
  2.52672027e-01  2.62630275e-01  2.64262869e-01  2.67101673e-01  2.73297893e-01
  2.80596386e-01  2.85116749e-01  2.91615906e-01  2.95426950e-01  2.98745370e-01
  3.02330610e-01  3.12009822e-01  3.26295996e-01  3.29137340e-01  3.35406693e-01
  3.37430418e-01  3.50326551e-01  3.53263500e-01  3.57501291e-01  3.66202556e-01
  3.77480457e-01  3.84584177e-01  3.92821417e-01  4.05274047e-01  4.31259001e-01
  4.33865354e-01  4.53803762e-01  4.63333080e-01  4.76739562e-01  5.20454363e-01
  5.74657212e-01  6.13198853e-01  6.52642209e-01  6.66285270e-01  6.73209407e-01
  6.87174884e-01  6.93096457e-01  6.94893748e-01  7.03983443e-01  7.12360919e-01
  7.22877476e-01  7.31775497e-01  7.36991893e-01  7.42080276e-01  7.53616806e-01
  7.56850677e-01  7.68235106e-01  7.88462448e-01  7.90322438e-01  8.14528845e-01
  8.23271733e-01  8.32079397e-01  8.36107343e-01  8.44555299e-01  8.55722725e-01
  8.62794565e-01  8.86313978e-01  8.97079763e-01  9.16822687e-01  9.41170714e-01
  9.55836690e-01  9.65245423e-01  9.68080152e-01  9.87841457e-01  9.94658908e-01
  1.01662299e+00  1.02850383e+00  1.03071674e+00  1.03736095e+00  1.05441207e+00
  1.06556325e+00  1.08729700e+00  1.09619471e+00  1.10802330e+00  1.12893004e+00
  1.13768937e+00  1.14568264e+00  1.15906008e+00  1.16955807e+00  1.19105797e+00
  1.19150598e+00  1.21541129e+00  1.22439375e+00  1.24045301e+00  1.26554878e+00
  1.28640972e+00  1.29744293e+00  1.31955658e+00  1.33963553e+00  1.36158515e+00
  1.36756154e+00  1.38638654e+00  1.40686441e+00  1.41960066e+00  1.43213788e+00
  1.44982026e+00  1.46822829e+00  1.48036398e+00  1.49219810e+00  1.49443131e+00
  1.50879181e+00  1.52641672e+00  1.55796625e+00  1.61560332e+00  1.66561970e+00
  1.70531367e+00  1.72334950e+00  1.74989106e+00  1.79587770e+00  1.82437822e+00
  1.84664166e+00  1.85792095e+00  1.88082347e+00  1.88347308e+00  1.89425715e+00
  1.90942526e+00  1.93072559e+00  1.94105233e+00  1.96229540e+00  1.97194262e+00
  2.00444452e+00  2.01480697e+00  2.01689114e+00  2.05248656e+00  2.07852667e+00
  2.10216662e+00  2.12236261e+00  2.12685680e+00  2.14891601e+00  2.15942291e+00
  2.18318271e+00  2.18839919e+00  2.21723066e+00  2.25676972e+00  2.28600282e+00
  2.30708873e+00  2.31404173e+00  2.32217771e+00  2.34149575e+00  2.35826101e+00
  2.37597953e+00  2.38410530e+00  2.41086122e+00  2.41627598e+00  2.43617195e+00
  2.46032261e+00  2.52797481e+00  2.58587139e+00  2.60011265e+00  2.60138866e+00
  2.66103149e+00  2.67247875e+00  2.69167168e+00  2.74759774e+00  2.76971916e+00
  2.79628605e+00  2.81966397e+00  2.84637504e+00  2.89679189e+00  2.95252377e+00
  3.02659999e+00  3.13486518e+00  3.24892868e+00  3.41309818e+00  4.12392593e+00
  4.22732688e+00  4.26135477e+00  4.26684505e+00  4.31461797e+00  4.32686689e+00
  4.35454569e+00  4.36645345e+00  4.43170252e+00  4.48000427e+00  4.55757200e+00
  4.67942143e+00  4.78195338e+00
Alpha MO coefficients                      R   N=       76729
 -5.95076556e-06 -1.13027475e-04 -1.75358719e-05 -3.56711719e-06 -1.65066341e-05
  5.06557554e-04  1.09122960e-04  4.15396435e-05  1.37473845e-04  9.74776059e-05