Generated by Psi4
     FORCE                           RHF                       TESTBAS
Number of atoms                            I               38
Charge                                     I                0
Multiplicity                               I                1
Number of electrons                        I              142
Number of alpha electrons                  I               71
Number of beta electrons                   I               71
Number of basis functions                  I              386
Number of independent functions            I              386
Atomic numbers                             I   N=          38
           6           6           6           6           6           6
           6           6           1           1           1           1
           8           7           6           1           6           1
           1           6           1           1           1           1
           1          17           6           6           1           1
           6           1           1           6           1           1
           1           1
Nuclear charges                            R   N=          38
  6.00000000e+00  6.00000000e+00  6.00000000e+00  6.00000000e+00  6.00000000e+00
  6.00000000e+00  6.00000000e+00  6.00000000e+00  1.00000000e+00  1.00000000e+00
  1.00000000e+00  1.00000000e+00  8.00000000e+00  7.00000000e+00  6.00000000e+00
  1.00000000e+00  6.00000000e+00  1.00000000e+00  1.00000000e+00  6.00000000e+00
  1.00000000e+00  1.00000000e+00  1.00000000e+00  1.00000000e+00  1.00000000e+00
  1.70000000e+01  6.00000000e+00  6.00000000e+00  1.00000000e+00  1.00000000e+00
  6.00000000e+00  1.00000000e+00  1.00000000e+00  6.00000000e+00  1.00000000e+00
  1.00000000e+00  1.00000000e+00  1.00000000e+00
Current cartesian coordinates              R   N=         114
 -6.52008352e-01 -2.89869306e+00 -1.73603558e-01  3.94569078e+00 -2.74641471e+00
  8.08393591e-01  1.70761504e+00 -1.40019739e+00  3.15051086e-01  6.21387039e+00
 -1.49227920e+00  1.25164865e+00  6.24631412e+00  1.14899009e+00  1.20593795e+00
 -3.11712822e+00 -1.62334566e+00 -1.06430201e+00  1.79218793e+00  1.25316158e+00
  2.85262256e-01  4.05429046e+00  2.53398094e+00  7.30295025e-01  7.93823540e+00
 -2.53751700e+00  1.62624658e+00  3.87283222e+00 -4.79616637e+00  8.32281789e-01
  4.11497053e+00  4.58397051e+00  7.14992874e-01  6.77248890e-02  2.31355333e+00
 -2.94332510e-02 -6.10772271e-01 -5.20742931e+00 -1.62860030e-03 -3.95349154e+00
  3.73280572e-01  6.68824405e-01 -2.77383515e+00 -6.67271670e-01 -3.82791396e+00
 -4.50515214e+00 -3.18664521e+00 -1.07512565e+00 -4.95234676e+00 -1.37303214e+00
 -5.61427894e+00 -1.02235950e+00 -1.45349683e+00 -4.61700069e+00 -2.50294479e+00
  1.38900081e+00 -3.79756930e+00 -4.55619599e+00 -3.63166128e-01 -8.30073091e+00
 -6.74908157e+00 -6.57888305e-01 -4.86354470e+00 -5.13076243e+00 -3.44057132e+00
 -5.66901536e+00 -4.43583034e+00  1.70769948e+00 -8.31740881e+00 -6.11851278e+00
 -9.12495402e-01 -9.54579643e+00 -2.80252823e+00 -1.09893511e+00 -9.12825498e+00
  9.09870957e+00  2.75087238e+00  1.76354412e+00 -4.28829027e+00 -4.96289605e-01
  3.29090435e+00 -5.68795068e+00  1.69915231e+00  4.59099037e+00 -2.46043596e+00
 -9.24100091e-01  4.16147910e+00 -5.44045982e+00 -2.24287831e+00  3.34913685e+00
 -7.06722602e+00  3.08308644e+00  2.39427117e+00 -4.34840870e+00  2.96636813e+00
  5.52883462e+00 -6.99523388e+00  1.00401832e+00  6.03566944e+00 -6.39905107e+00
  1.52509463e+00  3.03345770e-02 -6.37146779e+00  5.02218413e+00  2.20089114e+00
 -9.11444280e+00  3.18482447e+00  2.67533746e+00 -6.26013508e+00  2.67567429e+00
 -1.68171399e+00 -7.85103887e+00  5.19937888e-02 -3.04382900e-01
Integer atomic weights                     I   N=          38
          12          12          12          12          12          12
          12          12           1           1           1           1
          15          14          12           1          12           1
           1          12           1           1           1           1
           1          34          12          12           1           1
          12           1           1          12           1           1
           1           1
Real atomic weights                        R   N=          38
  1.20000000e+01  1.20000000e+01  1.20000000e+01  1.20000000e+01  1.20000000e+01
  1.20000000e+01  1.20000000e+01  1.20000000e+01  1.00782503e+00  1.00782503e+00
  1.00782503e+00  1.00782503e+00  1.59949146e+01  1.40030740e+01  1.20000000e+01
  1.00782503e+00  1.20000000e+01  1.00782503e+00  1.00782503e+00  1.20000000e+01
  1.00782503e+00  1.00782503e+00  1.00782503e+00  1.00782503e+00  1.00782503e+00
  3.49688527e+01  1.20000000e+01  1.20000000e+01  1.00782503e+00  1.00782503e+00
  1.20000000e+01  1.00782503e+00  1.00782503e+00  1.20000000e+01  1.00782503e+00
  1.00782503e+00  1.00782503e+00  1.00782503e+00
Number of primitive shells                 I              398
Number of contracted shells                I              186
Pure/Cartesian d shells                    I                1
Pure/Cartesian f shells                    I                1
Highest angular momentum                   I                2
Largest degree of contraction              I                6
Shell types                                I   N=         186
           0           0           1           0           1           2
           0           1           0           0           1           0
           1           2           0           1           0           0
           1           0           1           2           0           1
           0           0           1           0           1           2
           0           1           0           0           1           0
           1           2           0           1           0           0
           1           0           1           2           0           1
           0           0           1           0           1           2
           0           1           0           0           1           0
           1           2           0           1           0           0
           0           0           0           0           0           0
           0           0           1           0           1           2
           0           1           0           0           1           0
           1           2           0           1           0           0
           1           0           1           2           0           1
           0           0           0           0           1           0
           1           2           0           1           0           0
           0           0           0           0           1           0
           1           2           0           1           0           0
           0           0           0           0           0           0
           0           0           0           0           1           0
           1           0           1           2           0           1
           0           0           1           0           1           2
           0           1           0           0           1           0
           1           2           0           1           0           0
           0           0           0           0           1           0
           1           2           0           1           0           0
           0           0           0           0           1           0
           1           2           0           1           0           0
           0           0           0           0           0           0
Number of primitives per shell             I   N=         186
           6           3           3           1           1           1
           1           1           6           3           3           1
           1           1           1           1           6           3
           3           1           1           1           1           1
           6           3           3           1           1           1
           1           1           6           3           3           1
           1           1           1           1           6           3
           3           1           1           1           1           1
           6           3           3           1           1           1
           1           1           6           3           3           1
           1           1           1           1           3           1
           3           1           3           1           3           1
           6           3           3           1           1           1
           1           1           6           3           3           1
           1           1           1           1           6           3
           3           1           1           1           1           1
           3           1           6           3           3           1
           1           1           1           1           3           1
           3           1           6           3           3           1
           1           1           1           1           3           1
           3           1           3           1           3           1
           3           1           6           6           6           3
           3           1           1           1           1           1
           6           3           3           1           1           1
           1           1           6           3           3           1
           1           1           1           1           3           1
           3           1           6           3           3           1
           1           1           1           1           3           1
           3           1           6           3           3           1
           1           1           1           1           3           1
           3           1           3           1           3           1
Shell to atom map                          I   N=         186
           1           1           1           1           1           1
           1           1           2           2           2           2
           2           2           2           2           3           3
           3           3           3           3           3           3
           4           4           4           4           4           4
           4           4           5           5           5           5
           5           5           5           5           6           6
           6           6           6           6           6           6
           7           7           7           7           7           7
           7           7           8           8           8           8
           8           8           8           8           9           9
          10          10          11          11          12          12
          13          13          13          13          13          13
          13          13          14          14          14          14
          14          14          14          14          15          15
          15          15          15          15          15          15
          16          16          17          17          17          17
          17          17          17          17          18          18
          19          19          20          20          20          20
          20          20          20          20          21          21
          22          22          23          23          24          24
          25          25          26          26          26          26
          26          26          26          26          26          26
          27          27          27          27          27          27
          27          27          28          28          28          28
          28          28          28          28          29          29
          30          30          31          31          31          31
          31          31          31          31          32          32
          33          33          34          34          34          34
          34          34          34          34          35          35
          36          36          37          37          38          38
Primitive exponents                        R   N=         398
  3.04752490e+03  4.57369510e+02  1.03948690e+02  2.92101550e+01  9.28666300e+00
  3.16392700e+00  7.86827240e+00  1.88128850e+00  5.44249300e-01  7.86827240e+00
  1.88128850e+00  5.44249300e-01  1.68714400e-01  1.68714400e-01  8.00000000e-01
  4.38000000e-02  4.38000000e-02  3.04752490e+03  4.57369510e+02  1.03948690e+02
  2.92101550e+01  9.28666300e+00  3.16392700e+00  7.86827240e+00  1.88128850e+00
  5.44249300e-01  7.86827240e+00  1.88128850e+00  5.44249300e-01  1.68714400e-01
  1.68714400e-01  8.00000000e-01  4.38000000e-02  4.38000000e-02  3.04752490e+03
  4.57369510e+02  1.03948690e+02  2.92101550e+01  9.28666300e+00  3.16392700e+00
  7.86827240e+00  1.88128850e+00  5.44249300e-01  7.86827240e+00  1.88128850e+00
  5.44249300e-01  1.68714400e-01  1.68714400e-01  8.00000000e-01  4.38000000e-02
  4.38000000e-02  3.04752490e+03  4.57369510e+02  1.03948690e+02  2.92101550e+01
  9.28666300e+00  3.16392700e+00  7.86827240e+00  1.88128850e+00  5.44249300e-01
  7.86827240e+00  1.88128850e+00  5.44249300e-01  1.68714400e-01  1.68714400e-01
  8.00000000e-01  4.38000000e-02  4.38000000e-02  3.04752490e+03  4.57369510e+02
  1.03948690e+02  2.92101550e+01  9.28666300e+00  3.16392700e+00  7.86827240e+00
  1.88128850e+00  5.44249300e-01  7.86827240e+00  1.88128850e+00  5.44249300e-01
  1.68714400e-01  1.68714400e-01  8.00000000e-01  4.38000000e-02  4.38000000e-02
  3.04752490e+03  4.57369510e+02  1.03948690e+02  2.92101550e+01  9.28666300e+00
  3.16392700e+00  7.86827240e+00  1.88128850e+00  5.44249300e-01  7.86827240e+00
  1.88128850e+00  5.44249300e-01  1.68714400e-01  1.68714400e-01  8.00000000e-01
  4.38000000e-02  4.38000000e-02  3.04752490e+03  4.57369510e+02  1.03948690e+02
  2.92101550e+01  9.28666300e+00  3.16392700e+00  7.86827240e+00  1.88128850e+00
  5.44249300e-01  7.86827240e+00  1.88128850e+00  5.44249300e-01  1.68714400e-01
  1.68714400e-01  8.00000000e-01  4.38000000e-02  4.38000000e-02  3.04752490e+03
  4.57369510e+02  1.03948690e+02  2.92101550e+01  9.28666300e+00  3.16392700e+00
  7.86827240e+00  1.88128850e+00  5.44249300e-01  7.86827240e+00  1.88128850e+00
  5.44249300e-01  1.68714400e-01  1.68714400e-01  8.00000000e-01  4.38000000e-02
  4.38000000e-02  1.87311370e+01  2.82539370e+00  6.40121700e-01  1.61277800e-01
  1.87311370e+01  2.82539370e+00  6.40121700e-01  1.61277800e-01  1.87311370e+01
  2.82539370e+00  6.40121700e-01  1.61277800e-01  1.87311370e+01  2.82539370e+00
  6.40121700e-01  1.61277800e-01  5.48467170e+03  8.25234950e+02  1.88046960e+02
  5.29645000e+01  1.68975700e+01  5.79963530e+00  1.55396160e+01  3.59993360e+00
  1.01376180e+00  1.55396160e+01  3.59993360e+00  1.01376180e+00  2.70005800e-01
  2.70005800e-01  8.00000000e-01  8.45000000e-02  8.45000000e-02  4.17351100e+03
  6.27457900e+02  1.42902100e+02  4.02343300e+01  1.28202100e+01  4.39043700e+00
  1.16263580e+01  2.71628000e+00  7.72218000e-01  1.16263580e+01  2.71628000e+00
  7.72218000e-01  2.12031300e-01  2.12031300e-01  8.00000000e-01  6.39000000e-02
  6.39000000e-02  3.04752490e+03  4.57369510e+02  1.03948690e+02  2.92101550e+01
  9.28666300e+00  3.16392700e+00  7.86827240e+00  1.88128850e+00  5.44249300e-01
  7.86827240e+00  1.88128850e+00  5.44249300e-01  1.68714400e-01  1.68714400e-01
  8.00000000e-01  4.38000000e-02  4.38000000e-02  1.87311370e+01  2.82539370e+00
  6.40121700e-01  1.61277800e-01  3.04752490e+03  4.57369510e+02  1.03948690e+02
  2.92101550e+01  9.28666300e+00  3.16392700e+00  7.86827240e+00  1.88128850e+00
  5.44249300e-01  7.86827240e+00  1.88128850e+00  5.44249300e-01  1.68714400e-01
  1.68714400e-01  8.00000000e-01  4.38000000e-02  4.38000000e-02  1.87311370e+01
  2.82539370e+00  6.40121700e-01  1.61277800e-01  1.87311370e+01  2.82539370e+00
  6.40121700e-01  1.61277800e-01  3.04752490e+03  4.57369510e+02  1.03948690e+02
  2.92101550e+01  9.28666300e+00  3.16392700e+00  7.86827240e+00  1.88128850e+00
  5.44249300e-01  7.86827240e+00  1.88128850e+00  5.44249300e-01  1.68714400e-01
  1.68714400e-01  8.00000000e-01  4.38000000e-02  4.38000000e-02  1.87311370e+01
  2.82539370e+00  6.40121700e-01  1.61277800e-01  1.87311370e+01  2.82539370e+00
  6.40121700e-01  1.61277800e-01  1.87311370e+01  2.82539370e+00  6.40121700e-01
  1.61277800e-01  1.87311370e+01  2.82539370e+00  6.40121700e-01  1.61277800e-01
  1.87311370e+01  2.82539370e+00  6.40121700e-01  1.61277800e-01  2.51801000e+04
  3.78035000e+03  8.60474000e+02  2.42145000e+02  7.73349000e+01  2.62470000e+01
  4.91765000e+02  1.16984000e+02  3.74153000e+01  1.37834000e+01  5.45215000e+00
  2.22588000e+00  4.91765000e+02  1.16984000e+02  3.74153000e+01  1.37834000e+01
  5.45215000e+00  2.22588000e+00  3.18649000e+00  1.14427000e+00  4.20377000e-01
  3.18649000e+00  1.14427000e+00  4.20377000e-01  1.42657000e-01  1.42657000e-01
  7.50000000e-01  4.83000000e-02  4.83000000e-02  3.04752490e+03  4.57369510e+02
  1.03948690e+02  2.92101550e+01  9.28666300e+00  3.16392700e+00  7.86827240e+00
  1.88128850e+00  5.44249300e-01  7.86827240e+00  1.88128850e+00  5.44249300e-01
  1.68714400e-01  1.68714400e-01  8.00000000e-01  4.38000000e-02  4.38000000e-02
  3.04752490e+03  4.57369510e+02  1.03948690e+02  2.92101550e+01  9.28666300e+00
  3.16392700e+00  7.86827240e+00  1.88128850e+00  5.44249300e-01  7.86827240e+00
  1.88128850e+00  5.44249300e-01  1.68714400e-01  1.68714400e-01  8.00000000e-01
  4.38000000e-02  4.38000000e-02  1.87311370e+01  2.82539370e+00  6.40121700e-01
  1.61277800e-01  1.87311370e+01  2.82539370e+00  6.40121700e-01  1.61277800e-01
  3.04752490e+03  4.57369510e+02  1.03948690e+02  2.92101550e+01  9.28666300e+00
  3.16392700e+00  7.86827240e+00  1.88128850e+00  5.44249300e-01  7.86827240e+00
  1.88128850e+00  5.44249300e-01  1.68714400e-01  1.68714400e-01  8.00000000e-01
  4.38000000e-02  4.38000000e-02  1.87311370e+01  2.82539370e+00  6.40121700e-01
  1.61277800e-01  1.87311370e+01  2.82539370e+00  6.40121700e-01  1.61277800e-01
  3.04752490e+03  4.57369510e+02  1.03948690e+02  2.92101550e+01  9.28666300e+00
  3.16392700e+00  7.86827240e+00  1.88128850e+00  5.44249300e-01  7.86827240e+00
  1.88128850e+00  5.44249300e-01  1.68714400e-01  1.68714400e-01  8.00000000e-01
  4.38000000e-02  4.38000000e-02  1.87311370e+01  2.82539370e+00  6.40121700e-01
  1.61277800e-01  1.87311370e+01  2.82539370e+00  6.40121700e-01  1.61277800e-01
  1.87311370e+01  2.82539370e+00  6.40121700e-01  1.61277800e-01  1.87311370e+01
  2.82539370e+00  6.40121700e-01  1.61277800e-01
Contraction coefficients                   R   N=         398
  1.83470016e-03  1.40373012e-02  6.88426061e-02  2.32184421e-01  4.67941342e-01
  3.62312032e-01 -1.19332409e-01 -1.60854212e-01  1.14345648e+00  6.89990956e-02
  3.16423980e-01  7.44308252e-01  1.00000000e+00  1.00000000e+00  1.00000000e+00
  1.00000000e+00  1.00000000e+00  1.83470016e-03  1.40373012e-02  6.88426061e-02
  2.32184421e-01  4.67941342e-01  3.62312032e-01 -1.19332409e-01 -1.60854212e-01
  1.14345648e+00  6.89990956e-02  3.16423980e-01  7.44308252e-01  1.00000000e+00
  1.00000000e+00  1.00000000e+00  1.00000000e+00  1.00000000e+00  1.83470016e-03
  1.40373012e-02  6.88426061e-02  2.32184421e-01  4.67941342e-01  3.62312032e-01
 -1.19332409e-01 -1.60854212e-01  1.14345648e+00  6.89990956e-02  3.16423980e-01
  7.44308252e-01  1.00000000e+00  1.00000000e+00  1.00000000e+00  1.00000000e+00
  1.00000000e+00  1.83470016e-03  1.40373012e-02  6.88426061e-02  2.32184421e-01
  4.67941342e-01  3.62312032e-01 -1.19332409e-01 -1.60854212e-01  1.14345648e+00
  6.89990956e-02  3.16423980e-01  7.44308252e-01  1.00000000e+00  1.00000000e+00
  1.00000000e+00  1.00000000e+00  1.00000000e+00  1.83470016e-03  1.40373012e-02
  6.88426061e-02  2.32184421e-01  4.67941342e-01  3.62312032e-01 -1.19332409e-01
 -1.60854212e-01  1.14345648e+00  6.89990956e-02  3.16423980e-01  7.44308252e-01
  1.00000000e+00  1.00000000e+00  1.00000000e+00  1.00000000e+00  1.00000000e+00
  1.83470016e-03  1.40373012e-02  6.88426061e-02  2.32184421e-01  4.67941342e-01
  3.62312032e-01 -1.19332409e-01 -1.60854212e-01  1.14345648e+00  6.89990956e-02
  3.16423980e-01  7.44308252e-01  1.00000000e+00  1.00000000e+00  1.00000000e+00
  1.00000000e+00  1.00000000e+00  1.83470016e-03  1.40373012e-02  6.88426061e-02
  2.32184421e-01  4.67941342e-01  3.62312032e-01 -1.19332409e-01 -1.60854212e-01
  1.14345648e+00  6.89990956e-02  3.16423980e-01  7.44308252e-01  1.00000000e+00
  1.00000000e+00  1.00000000e+00  1.00000000e+00  1.00000000e+00  1.83470016e-03
  1.40373012e-02  6.88426061e-02  2.32184421e-01  4.67941342e-01  3.62312032e-01
 -1.19332409e-01 -1.60854212e-01  1.14345648e+00  6.89990956e-02  3.16423980e-01
  7.44308252e-01  1.00000000e+00  1.00000000e+00  1.00000000e+00  1.00000000e+00
  1.00000000e+00  3.34945995e-02  2.34726947e-01  8.13757318e-01  1.00000000e+00
  3.34945995e-02  2.34726947e-01  8.13757318e-01  1.00000000e+00  3.34945995e-02
  2.34726947e-01  8.13757318e-01  1.00000000e+00  3.34945995e-02  2.34726947e-01
  8.13757318e-01  1.00000000e+00  1.83109981e-03  1.39500985e-02  6.84450927e-02
  2.32714275e-01  4.70192950e-01  3.58520862e-01 -1.10777504e-01 -1.48026305e-01
  1.13076704e+00  7.08742995e-02  3.39752798e-01  7.27158595e-01  1.00000000e+00
  1.00000000e+00  1.00000000e+00  1.00000000e+00  1.00000000e+00  1.83479944e-03
  1.39949958e-02  6.85869792e-02  2.32240930e-01  4.69069858e-01  3.60454891e-01
 -1.14961023e-01 -1.69118034e-01  1.14585223e+00  6.75800232e-02  3.23907111e-01
  7.40895255e-01  1.00000000e+00  1.00000000e+00  1.00000000e+00  1.00000000e+00
  1.00000000e+00  1.83470016e-03  1.40373012e-02  6.88426061e-02  2.32184421e-01
  4.67941342e-01  3.62312032e-01 -1.19332409e-01 -1.60854212e-01  1.14345648e+00
  6.89990956e-02  3.16423980e-01  7.44308252e-01  1.00000000e+00  1.00000000e+00
  1.00000000e+00  1.00000000e+00  1.00000000e+00  3.34945995e-02  2.34726947e-01
  8.13757318e-01  1.00000000e+00  1.83470016e-03  1.40373012e-02  6.88426061e-02
  2.32184421e-01  4.67941342e-01  3.62312032e-01 -1.19332409e-01 -1.60854212e-01
  1.14345648e+00  6.89990956e-02  3.16423980e-01  7.44308252e-01  1.00000000e+00
  1.00000000e+00  1.00000000e+00  1.00000000e+00  1.00000000e+00  3.34945995e-02
  2.34726947e-01  8.13757318e-01  1.00000000e+00  3.34945995e-02  2.34726947e-01
  8.13757318e-01  1.00000000e+00  1.83470016e-03  1.40373012e-02  6.88426061e-02
  2.32184421e-01  4.67941342e-01  3.62312032e-01 -1.19332409e-01 -1.60854212e-01
  1.14345648e+00  6.89990956e-02  3.16423980e-01  7.44308252e-01  1.00000000e+00
  1.00000000e+00  1.00000000e+00  1.00000000e+00  1.00000000e+00  3.34945995e-02
  2.34726947e-01  8.13757318e-01  1.00000000e+00  3.34945995e-02  2.34726947e-01
  8.13757318e-01  1.00000000e+00  3.34945995e-02  2.34726947e-01  8.13757318e-01
  1.00000000e+00  3.34945995e-02  2.34726947e-01  8.13757318e-01  1.00000000e+00
  3.34945995e-02  2.34726947e-01  8.13757318e-01  1.00000000e+00  1.83300031e-03
  1.40340024e-02  6.90970118e-02  2.37452040e-01  4.83034082e-01  3.39856058e-01
 -2.29740199e-03 -3.07140266e-02 -1.12528097e-01  4.50160390e-02  5.89353510e-01
  4.65206403e-01  3.98940055e-03  3.03180042e-02  1.29880018e-01  3.27951045e-01
  4.53527062e-01  2.52154035e-01 -2.51831288e-01  6.15893150e-02  1.06018542e+00
 -1.42990127e-02  3.23572288e-01  7.43507661e-01  1.00000000e+00  1.00000000e+00
  1.00000000e+00  1.00000000e+00  1.00000000e+00  1.83470016e-03  1.40373012e-02
  6.88426061e-02  2.32184421e-01  4.67941342e-01  3.62312032e-01 -1.19332409e-01
 -1.60854212e-01  1.14345648e+00  6.89990956e-02  3.16423980e-01  7.44308252e-01
  1.00000000e+00  1.00000000e+00  1.00000000e+00  1.00000000e+00  1.00000000e+00
  1.83470016e-03  1.40373012e-02  6.88426061e-02  2.32184421e-01  4.67941342e-01
  3.62312032e-01 -1.19332409e-01 -1.60854212e-01  1.14345648e+00  6.89990956e-02
  3.16423980e-01  7.44308252e-01  1.00000000e+00  1.00000000e+00  1.00000000e+00
  1.00000000e+00  1.00000000e+00  3.34945995e-02  2.34726947e-01  8.13757318e-01
  1.00000000e+00  3.34945995e-02  2.34726947e-01  8.13757318e-01  1.00000000e+00
  1.83470016e-03  1.40373012e-02  6.88426061e-02  2.32184421e-01  4.67941342e-01
  3.62312032e-01 -1.19332409e-01 -1.60854212e-01  1.14345648e+00  6.89990956e-02
  3.16423980e-01  7.44308252e-01  1.00000000e+00  1.00000000e+00  1.00000000e+00
  1.00000000e+00  1.00000000e+00  3.34945995e-02  2.34726947e-01  8.13757318e-01
  1.00000000e+00  3.34945995e-02  2.34726947e-01  8.13757318e-01  1.00000000e+00
  1.83470016e-03  1.40373012e-02  6.88426061e-02  2.32184421e-01  4.67941342e-01
  3.62312032e-01 -1.19332409e-01 -1.60854212e-01  1.14345648e+00  6.89990956e-02
  3.16423980e-01  7.44308252e-01  1.00000000e+00  1.00000000e+00  1.00000000e+00
  1.00000000e+00  1.00000000e+00  3.34945995e-02  2.34726947e-01  8.13757318e-01
  1.00000000e+00  3.34945995e-02  2.34726947e-01  8.13757318e-01  1.00000000e+00
  3.34945995e-02  2.34726947e-01  8.13757318e-01  1.00000000e+00  3.34945995e-02
  2.34726947e-01  8.13757318e-01  1.00000000e+00
Coordinates of each shell                  R   N=         558
 -6.52008352e-01 -2.89869306e+00 -1.73603558e-01 -6.52008352e-01 -2.89869306e+00
 -1.73603558e-01 -6.52008352e-01 -2.89869306e+00 -1.73603558e-01 -6.52008352e-01
 -2.89869306e+00 -1.73603558e-01 -6.52008352e-01 -2.89869306e+00 -1.73603558e-01
 -6.52008352e-01 -2.89869306e+00 -1.73603558e-01 -6.52008352e-01 -2.89869306e+00
 -1.73603558e-01 -6.52008352e-01 -2.89869306e+00 -1.73603558e-01  3.94569078e+00
 -2.74641471e+00  8.08393591e-01  3.94569078e+00 -2.74641471e+00  8.08393591e-01
  3.94569078e+00 -2.74641471e+00  8.08393591e-01  3.94569078e+00 -2.74641471e+00
  8.08393591e-01  3.94569078e+00 -2.74641471e+00  8.08393591e-01  3.94569078e+00
 -2.74641471e+00  8.08393591e-01  3.94569078e+00 -2.74641471e+00  8.08393591e-01
  3.94569078e+00 -2.74641471e+00  8.08393591e-01  1.70761504e+00 -1.40019739e+00
  3.15051086e-01  1.70761504e+00 -1.40019739e+00  3.15051086e-01  1.70761504e+00
 -1.40019739e+00  3.15051086e-01  1.70761504e+00 -1.40019739e+00  3.15051086e-01
  1.70761504e+00 -1.40019739e+00  3.15051086e-01  1.70761504e+00 -1.40019739e+00
  3.15051086e-01  1.70761504e+00 -1.40019739e+00  3.15051086e-01  1.70761504e+00
 -1.40019739e+00  3.15051086e-01  6.21387039e+00 -1.49227920e+00  1.25164865e+00
  6.21387039e+00 -1.49227920e+00  1.25164865e+00  6.21387039e+00 -1.49227920e+00
  1.25164865e+00  6.21387039e+00 -1.49227920e+00  1.25164865e+00  6.21387039e+00
 -1.49227920e+00  1.25164865e+00  6.21387039e+00 -1.49227920e+00  1.25164865e+00
  6.21387039e+00 -1.49227920e+00  1.25164865e+00  6.21387039e+00 -1.49227920e+00
  1.25164865e+00  6.24631412e+00  1.14899009e+00  1.20593795e+00  6.24631412e+00
  1.14899009e+00  1.20593795e+00  6.24631412e+00  1.14899009e+00  1.20593795e+00
  6.24631412e+00  1.14899009e+00  1.20593795e+00  6.24631412e+00  1.14899009e+00
  1.20593795e+00  6.24631412e+00  1.14899009e+00  1.20593795e+00  6.24631412e+00
  1.14899009e+00  1.20593795e+00  6.24631412e+00  1.14899009e+00  1.20593795e+00
 -3.11712822e+00 -1.62334566e+00 -1.06430201e+00 -3.11712822e+00 -1.62334566e+00
 -1.06430201e+00 -3.11712822e+00 -1.62334566e+00 -1.06430201e+00 -3.11712822e+00
 -1.62334566e+00 -1.06430201e+00 -3.11712822e+00 -1.62334566e+00 -1.06430201e+00
 -3.11712822e+00 -1.62334566e+00 -1.06430201e+00 -3.11712822e+00 -1.62334566e+00
 -1.06430201e+00 -3.11712822e+00 -1.62334566e+00 -1.06430201e+00  1.79218793e+00
  1.25316158e+00  2.85262256e-01  1.79218793e+00  1.25316158e+00  2.85262256e-01
  1.79218793e+00  1.25316158e+00  2.85262256e-01  1.79218793e+00  1.25316158e+00
  2.85262256e-01  1.79218793e+00  1.25316158e+00  2.85262256e-01  1.79218793e+00
  1.25316158e+00  2.85262256e-01  1.79218793e+00  1.25316158e+00  2.85262256e-01
  1.79218793e+00  1.25316158e+00  2.85262256e-01  4.05429046e+00  2.53398094e+00
  7.30295025e-01  4.05429046e+00  2.53398094e+00  7.30295025e-01  4.05429046e+00
  2.53398094e+00  7.30295025e-01  4.05429046e+00  2.53398094e+00  7.30295025e-01
  4.05429046e+00  2.53398094e+00  7.30295025e-01  4.05429046e+00  2.53398094e+00
  7.30295025e-01  4.05429046e+00  2.53398094e+00  7.30295025e-01  4.05429046e+00
  2.53398094e+00  7.30295025e-01  7.93823540e+00 -2.53751700e+00  1.62624658e+00
  7.93823540e+00 -2.53751700e+00  1.62624658e+00  3.87283222e+00 -4.79616637e+00
  8.32281789e-01  3.87283222e+00 -4.79616637e+00  8.32281789e-01  4.11497053e+00
  4.58397051e+00  7.14992874e-01  4.11497053e+00  4.58397051e+00  7.14992874e-01
  6.77248890e-02  2.31355333e+00 -2.94332510e-02  6.77248890e-02  2.31355333e+00
 -2.94332510e-02 -6.10772271e-01 -5.20742931e+00 -1.62860030e-03 -6.10772271e-01
 -5.20742931e+00 -1.62860030e-03 -6.10772271e-01 -5.20742931e+00 -1.62860030e-03
 -6.10772271e-01 -5.20742931e+00 -1.62860030e-03 -6.10772271e-01 -5.20742931e+00
 -1.62860030e-03 -6.10772271e-01 -5.20742931e+00 -1.62860030e-03 -6.10772271e-01
 -5.20742931e+00 -1.62860030e-03 -6.10772271e-01 -5.20742931e+00 -1.62860030e-03
 -3.95349154e+00  3.73280572e-01  6.68824405e-01 -3.95349154e+00  3.73280572e-01
  6.68824405e-01 -3.95349154e+00  3.73280572e-01  6.68824405e-01 -3.95349154e+00
  3.73280572e-01  6.68824405e-01 -3.95349154e+00  3.73280572e-01  6.68824405e-01
 -3.95349154e+00  3.73280572e-01  6.68824405e-01 -3.95349154e+00  3.73280572e-01
  6.68824405e-01 -3.95349154e+00  3.73280572e-01  6.68824405e-01 -2.77383515e+00
 -6.67271670e-01 -3.82791396e+00 -2.77383515e+00 -6.67271670e-01 -3.82791396e+00
 -2.77383515e+00 -6.67271670e-01 -3.82791396e+00 -2.77383515e+00 -6.67271670e-01
 -3.82791396e+00 -2.77383515e+00 -6.67271670e-01 -3.82791396e+00 -2.77383515e+00
 -6.67271670e-01 -3.82791396e+00 -2.77383515e+00 -6.67271670e-01 -3.82791396e+00