Generated by Psi4
     FORCE                           RHF                       TESTBAS
Number of atoms                            I               25
Charge                                     I                0
Multiplicity                               I                1
Number of electrons                        I              104
Number of alpha electrons                  I               52
Number of beta electrons                   I               52
Number of basis functions                  I              275
Number of independent functions            I              275
Atomic numbers                             I   N=          25
           6           6           6           7           6           6
           6           6           6           1           1           6
           1           6           1           8           1           1
           1           1           1          17           1           1
           1
Nuclear charges                            R   N=          25
  6.00000000e+00  6.00000000e+00  6.00000000e+00  7.00000000e+00  6.00000000e+00
  6.00000000e+00  6.00000000e+00  6.00000000e+00  6.00000000e+00  1.00000000e+00
  1.00000000e+00  6.00000000e+00  1.00000000e+00  6.00000000e+00  1.00000000e+00
  8.00000000e+00  1.00000000e+00  1.00000000e+00  1.00000000e+00  1.00000000e+00
  1.00000000e+00  1.70000000e+01  1.00000000e+00  1.00000000e+00  1.00000000e+00
Current cartesian coordinates              R   N=          75
 -8.69354830e-01  3.54314134e-01 -6.20173572e-01 -3.38097667e+00  1.59406875e+00
 -1.71557245e-01 -4.05077276e+00  2.93810093e+00  2.33289454e+00 -3.47553874e+00
  1.43831077e+00  4.58794766e+00  9.95431318e-01  5.68920658e-02  1.24872212e+00
  3.30515084e+00 -1.08155457e+00  6.76928402e-01  3.75437198e+00 -1.92726353e+00
 -1.77880645e+00  1.93065422e+00 -1.66154486e+00 -3.67177049e+00 -3.64748346e-01
 -5.25619362e-01 -3.07884434e+00  6.04721490e-01  6.67268743e-01  3.16424634e+00
  4.73852087e+00 -1.31705260e+00  2.12486612e+00 -2.69371090e+00  5.50601286e+00
  2.45748575e+00 -6.09815147e+00  3.29577451e+00  2.15535889e+00 -5.07759238e+00
 -7.98355785e-01  4.88738036e+00 -3.65485047e+00  2.56885676e+00  6.13516283e+00
 -4.94426669e+00  1.68077864e+00 -1.87872446e+00  2.31200775e+00 -2.33263517e+00
 -5.57186945e+00 -1.80698557e+00 -2.95124278e-01 -4.51867740e+00 -6.42153625e-01
  5.27920117e+00  2.59457904e+00 -3.34395749e+00  6.56782337e+00  4.11622968e+00
 -3.12467707e+00  6.63581934e+00  7.78969850e-01  6.65819080e+00 -3.35853043e+00
 -2.50692580e+00 -4.65431904e+00 -2.16678367e+00  3.39193175e+00 -7.12016669e+00
 -3.77046660e-01  4.80790115e+00 -4.65460681e+00 -1.69910800e+00  6.70067133e+00
Integer atomic weights                     I   N=          25
          12          12          12          14          12          12
          12          12          12           1           1          12
           1          12           1          15           1           1
           1           1           1          34           1           1
           1
Real atomic weights                        R   N=          25
  1.20000000e+01  1.20000000e+01  1.20000000e+01  1.40030740e+01  1.20000000e+01
  1.20000000e+01  1.20000000e+01  1.20000000e+01  1.20000000e+01  1.00782503e+00
  1.00782503e+00  1.20000000e+01  1.00782503e+00  1.20000000e+01  1.00782503e+00
  1.59949146e+01  1.00782503e+00  1.00782503e+00  1.00782503e+00  1.00782503e+00
  1.00782503e+00  3.49688527e+01  1.00782503e+00  1.00782503e+00  1.00782503e+00
Number of primitive shells                 I              281
Number of contracted shells                I              130
Pure/Cartesian d shells                    I                1
Pure/Cartesian f shells                    I                1
Highest angular momentum                   I                2
Largest degree of contraction              I                6
Shell types                                I   N=         130
           0           0           1           0           1           2
           0           1           0           0           1           0
           1           2           0           1           0           0
           1           0           1           2           0           1
           0           0           1           0           1           2
           0           1           0           0           1           0
           1           2           0           1           0           0
           1           0           1           2           0           1
           0           0           1           0           1           2
           0           1           0           0           1           0
           1           2           0           1           0           0
           1           0           1           2           0           1
           0           0           0           0           0           0
           1           0           1           2           0           1
           0           0           0           0           1           0
           1           2           0           1           0           0
           0           0           1           0           1           2
           0           1           0           0           0           0
           0           0           0           0           0           0
           0           0           1           0           1           0
           1           2           0           1           0           0
           0           0           0           0
Number of primitives per shell             I   N=         130
           6           3           3           1           1           1
           1           1           6           3           3           1
           1           1           1           1           6           3
           3           1           1           1           1           1
           6           3           3           1           1           1
           1           1           6           3           3           1
           1           1           1           1           6           3
           3           1           1           1           1           1
           6           3           3           1           1           1
           1           1           6           3           3           1
           1           1           1           1           6           3
           3           1           1           1           1           1
           3           1           3           1           6           3
           3           1           1           1           1           1
           3           1           6           3           3           1
           1           1           1           1           3           1
           6           3           3           1           1           1
           1           1           3           1           3           1
           3           1           3           1           3           1
           6           6           6           3           3           1
           1           1           1           1           3           1
           3           1           3           1
Shell to atom map                          I   N=         130
           1           1           1           1           1           1
           1           1           2           2           2           2
           2           2           2           2           3           3
           3           3           3           3           3           3
           4           4           4           4           4           4
           4           4           5           5           5           5
           5           5           5           5           6           6
           6           6           6           6           6           6
           7           7           7           7           7           7
           7           7           8           8           8           8
           8           8           8           8           9           9
           9           9           9           9           9           9
          10          10          11          11          12          12
          12          12          12          12          12          12
          13          13          14          14          14          14
          14          14          14          14          15          15
          16          16          16          16          16          16
          16          16          17          17          18          18
          19          19          20          20          21          21
          22          22          22          22          22          22
          22          22          22          22          23          23
          24          24          25          25
Primitive exponents                        R   N=         281
  3.04752490e+03  4.57369510e+02  1.03948690e+02  2.92101550e+01  9.28666300e+00
  3.16392700e+00  7.86827240e+00  1.88128850e+00  5.44249300e-01  7.86827240e+00
  1.88128850e+00  5.44249300e-01  1.68714400e-01  1.68714400e-01  8.00000000e-01
  4.38000000e-02  4.38000000e-02  3.04752490e+03  4.57369510e+02  1.03948690e+02
  2.92101550e+01  9.28666300e+00  3.16392700e+00  7.86827240e+00  1.88128850e+00
  5.44249300e-01  7.86827240e+00  1.88128850e+00  5.44249300e-01  1.68714400e-01
  1.68714400e-01  8.00000000e-01  4.38000000e-02  4.38000000e-02  3.04752490e+03
  4.57369510e+02  1.03948690e+02  2.92101550e+01  9.28666300e+00  3.16392700e+00
  7.86827240e+00  1.88128850e+00  5.44249300e-01  7.86827240e+00  1.88128850e+00
  5.44249300e-01  1.68714400e-01  1.68714400e-01  8.00000000e-01  4.38000000e-02
  4.38000000e-02  4.17351100e+03  6.27457900e+02  1.42902100e+02  4.02343300e+01
  1.28202100e+01  4.39043700e+00  1.16263580e+01  2.71628000e+00  7.72218000e-01
  1.16263580e+01  2.71628000e+00  7.72218000e-01  2.12031300e-01  2.12031300e-01
  8.00000000e-01  6.39000000e-02  6.39000000e-02  3.04752490e+03  4.57369510e+02
  1.03948690e+02  2.92101550e+01  9.28666300e+00  3.16392700e+00  7.86827240e+00
  1.88128850e+00  5.44249300e-01  7.86827240e+00  1.88128850e+00  5.44249300e-01
  1.68714400e-01  1.68714400e-01  8.00000000e-01  4.38000000e-02  4.38000000e-02
  3.04752490e+03  4.57369510e+02  1.03948690e+02  2.92101550e+01  9.28666300e+00
  3.16392700e+00  7.86827240e+00  1.88128850e+00  5.44249300e-01  7.86827240e+00
  1.88128850e+00  5.44249300e-01  1.68714400e-01  1.68714400e-01  8.00000000e-01
  4.38000000e-02  4.38000000e-02  3.04752490e+03  4.57369510e+02  1.03948690e+02
  2.92101550e+01  9.28666300e+00  3.16392700e+00  7.86827240e+00  1.88128850e+00
  5.44249300e-01  7.86827240e+00  1.88128850e+00  5.44249300e-01  1.68714400e-01
  1.68714400e-01  8.00000000e-01  4.38000000e-02  4.38000000e-02  3.04752490e+03
  4.57369510e+02  1.03948690e+02  2.92101550e+01  9.28666300e+00  3.16392700e+00
  7.86827240e+00  1.88128850e+00  5.44249300e-01  7.86827240e+00  1.88128850e+00
  5.44249300e-01  1.68714400e-01  1.68714400e-01  8.00000000e-01  4.38000000e-02
  4.38000000e-02  3.04752490e+03  4.57369510e+02  1.03948690e+02  2.92101550e+01
  9.28666300e+00  3.16392700e+00  7.86827240e+00  1.88128850e+00  5.44249300e-01
  7.86827240e+00  1.88128850e+00  5.44249300e-01  1.68714400e-01  1.68714400e-01
  8.00000000e-01  4.38000000e-02  4.38000000e-02  1.87311370e+01  2.82539370e+00
  6.40121700e-01  1.61277800e-01  1.87311370e+01  2.82539370e+00  6.40121700e-01
  1.61277800e-01  3.04752490e+03  4.57369510e+02  1.03948690e+02  2.92101550e+01
  9.28666300e+00  3.16392700e+00  7.86827240e+00  1.88128850e+00  5.44249300e-01
  7.86827240e+00  1.88128850e+00  5.44249300e-01  1.68714400e-01  1.68714400e-01
  8.00000000e-01  4.38000000e-02  4.38000000e-02  1.87311370e+01  2.82539370e+00
  6.40121700e-01  1.61277800e-01  3.04752490e+03  4.57369510e+02  1.03948690e+02
  2.92101550e+01  9.28666300e+00  3.16392700e+00  7.86827240e+00  1.88128850e+00
  5.44249300e-01  7.86827240e+00  1.88128850e+00  5.44249300e-01  1.68714400e-01
  1.68714400e-01  8.00000000e-01  4.38000000e-02  4.38000000e-02  1.87311370e+01
  2.82539370e+00  6.40121700e-01  1.61277800e-01  5.48467170e+03  8.25234950e+02
  1.88046960e+02  5.29645000e+01  1.68975700e+01  5.79963530e+00  1.55396160e+01
  3.59993360e+00  1.01376180e+00  1.55396160e+01  3.59993360e+00  1.01376180e+00
  2.70005800e-01  2.70005800e-01  8.00000000e-01  8.45000000e-02  8.45000000e-02
  1.87311370e+01  2.82539370e+00  6.40121700e-01  1.61277800e-01  1.87311370e+01
  2.82539370e+00  6.40121700e-01  1.61277800e-01  1.87311370e+01  2.82539370e+00
  6.40121700e-01  1.61277800e-01  1.87311370e+01  2.82539370e+00  6.40121700e-01
  1.61277800e-01  1.87311370e+01  2.82539370e+00  6.40121700e-01  1.61277800e-01
  2.51801000e+04  3.78035000e+03  8.60474000e+02  2.42145000e+02  7.73349000e+01
  2.62470000e+01  4.91765000e+02  1.16984000e+02  3.74153000e+01  1.37834000e+01
  5.45215000e+00  2.22588000e+00  4.91765000e+02  1.16984000e+02  3.74153000e+01
  1.37834000e+01  5.45215000e+00  2.22588000e+00  3.18649000e+00  1.14427000e+00
  4.20377000e-01  3.18649000e+00  1.14427000e+00  4.20377000e-01  1.42657000e-01
  1.42657000e-01  7.50000000e-01  4.83000000e-02  4.83000000e-02  1.87311370e+01
  2.82539370e+00  6.40121700e-01  1.61277800e-01  1.87311370e+01  2.82539370e+00
  6.40121700e-01  1.61277800e-01  1.87311370e+01  2.82539370e+00  6.40121700e-01
  1.61277800e-01
Contraction coefficients                   R   N=         281
  1.83470016e-03  1.40373012e-02  6.88426061e-02  2.32184421e-01  4.67941342e-01
  3.62312032e-01 -1.19332409e-01 -1.60854212e-01  1.14345648e+00  6.89990956e-02
  3.16423980e-01  7.44308252e-01  1.00000000e+00  1.00000000e+00  1.00000000e+00
  1.00000000e+00  1.00000000e+00  1.83470016e-03  1.40373012e-02  6.88426061e-02
  2.32184421e-01  4.67941342e-01  3.62312032e-01 -1.19332409e-01 -1.60854212e-01
  1.14345648e+00  6.89990956e-02  3.16423980e-01  7.44308252e-01  1.00000000e+00
  1.00000000e+00  1.00000000e+00  1.00000000e+00  1.00000000e+00  1.83470016e-03
  1.40373012e-02  6.88426061e-02  2.32184421e-01  4.67941342e-01  3.62312032e-01
 -1.19332409e-01 -1.60854212e-01  1.14345648e+00  6.89990956e-02  3.16423980e-01
  7.44308252e-01  1.00000000e+00  1.00000000e+00  1.00000000e+00  1.00000000e+00
  1.00000000e+00  1.83479944e-03  1.39949958e-02  6.85869792e-02  2.32240930e-01
  4.69069858e-01  3.60454891e-01 -1.14961023e-01 -1.69118034e-01  1.14585223e+00
  6.75800232e-02  3.23907111e-01  7.40895255e-01  1.00000000e+00  1.00000000e+00
  1.00000000e+00  1.00000000e+00  1.00000000e+00  1.83470016e-03  1.40373012e-02
  6.88426061e-02  2.32184421e-01  4.67941342e-01  3.62312032e-01 -1.19332409e-01
 -1.60854212e-01  1.14345648e+00  6.89990956e-02  3.16423980e-01  7.44308252e-01
  1.00000000e+00  1.00000000e+00  1.00000000e+00  1.00000000e+00  1.00000000e+00
  1.83470016e-03  1.40373012e-02  6.88426061e-02  2.32184421e-01  4.67941342e-01
  3.62312032e-01 -1.19332409e-01 -1.60854212e-01  1.14345648e+00  6.89990956e-02
  3.16423980e-01  7.44308252e-01  1.00000000e+00  1.00000000e+00  1.00000000e+00
  1.00000000e+00  1.00000000e+00  1.83470016e-03  1.40373012e-02  6.88426061e-02
  2.32184421e-01  4.67941342e-01  3.62312032e-01 -1.19332409e-01 -1.60854212e-01
  1.14345648e+00  6.89990956e-02  3.16423980e-01  7.44308252e-01  1.00000000e+00
  1.00000000e+00  1.00000000e+00  1.00000000e+00  1.00000000e+00  1.83470016e-03
  1.40373012e-02  6.88426061e-02  2.32184421e-01  4.67941342e-01  3.62312032e-01
 -1.19332409e-01 -1.60854212e-01  1.14345648e+00  6.89990956e-02  3.16423980e-01
  7.44308252e-01  1.00000000e+00  1.00000000e+00  1.00000000e+00  1.00000000e+00
  1.00000000e+00  1.83470016e-03  1.40373012e-02  6.88426061e-02  2.32184421e-01
  4.67941342e-01  3.62312032e-01 -1.19332409e-01 -1.60854212e-01  1.14345648e+00
  6.89990956e-02  3.16423980e-01  7.44308252e-01  1.00000000e+00  1.00000000e+00
  1.00000000e+00  1.00000000e+00  1.00000000e+00  3.34945995e-02  2.34726947e-01
  8.13757318e-01  1.00000000e+00  3.34945995e-02  2.34726947e-01  8.13757318e-01
  1.00000000e+00  1.83470016e-03  1.40373012e-02  6.88426061e-02  2.32184421e-01
  4.67941342e-01  3.62312032e-01 -1.19332409e-01 -1.60854212e-01  1.14345648e+00
  6.89990956e-02  3.16423980e-01  7.44308252e-01  1.00000000e+00  1.00000000e+00
  1.00000000e+00  1.00000000e+00  1.00000000e+00  3.34945995e-02  2.34726947e-01
  8.13757318e-01  1.00000000e+00  1.83470016e-03  1.40373012e-02  6.88426061e-02
  2.32184421e-01  4.67941342e-01  3.62312032e-01 -1.19332409e-01 -1.60854212e-01
  1.14345648e+00  6.89990956e-02  3.16423980e-01  7.44308252e-01  1.00000000e+00
  1.00000000e+00  1.00000000e+00  1.00000000e+00  1.00000000e+00  3.34945995e-02
  2.34726947e-01  8.13757318e-01  1.00000000e+00  1.83109981e-03  1.39500985e-02
  6.84450927e-02  2.32714275e-01  4.70192950e-01  3.58520862e-01 -1.10777504e-01
 -1.48026305e-01  1.13076704e+00  7.08742995e-02  3.39752798e-01  7.27158595e-01
  1.00000000e+00  1.00000000e+00  1.00000000e+00  1.00000000e+00  1.00000000e+00
  3.34945995e-02  2.34726947e-01  8.13757318e-01  1.00000000e+00  3.34945995e-02
  2.34726947e-01  8.13757318e-01  1.00000000e+00  3.34945995e-02  2.34726947e-01
  8.13757318e-01  1.00000000e+00  3.34945995e-02  2.34726947e-01  8.13757318e-01
  1.00000000e+00  3.34945995e-02  2.34726947e-01  8.13757318e-01  1.00000000e+00
  1.83300031e-03  1.40340024e-02  6.90970118e-02  2.37452040e-01  4.83034082e-01
  3.39856058e-01 -2.29740199e-03 -3.07140266e-02 -1.12528097e-01  4.50160390e-02
  5.89353510e-01  4.65206403e-01  3.98940055e-03  3.03180042e-02  1.29880018e-01
  3.27951045e-01  4.53527062e-01  2.52154035e-01 -2.51831288e-01  6.15893150e-02
  1.06018542e+00 -1.42990127e-02  3.23572288e-01  7.43507661e-01  1.00000000e+00
  1.00000000e+00  1.00000000e+00  1.00000000e+00  1.00000000e+00  3.34945995e-02
  2.34726947e-01  8.13757318e-01  1.00000000e+00  3.34945995e-02  2.34726947e-01
  8.13757318e-01  1.00000000e+00  3.34945995e-02  2.34726947e-01  8.13757318e-01
  1.00000000e+00
Coordinates of each shell                  R   N=         390
 -8.69354830e-01  3.54314134e-01 -6.20173572e-01 -8.69354830e-01  3.54314134e-01
 -6.20173572e-01 -8.69354830e-01  3.54314134e-01 -6.20173572e-01 -8.69354830e-01
  3.54314134e-01 -6.20173572e-01 -8.69354830e-01  3.54314134e-01 -6.20173572e-01
 -8.69354830e-01  3.54314134e-01 -6.20173572e-01 -8.69354830e-01  3.54314134e-01
 -6.20173572e-01 -8.69354830e-01  3.54314134e-01 -6.20173572e-01 -3.38097667e+00
  1.59406875e+00 -1.71557245e-01 -3.38097667e+00  1.59406875e+00 -1.71557245e-01
 -3.38097667e+00  1.59406875e+00 -1.71557245e-01 -3.38097667e+00  1.59406875e+00
 -1.71557245e-01 -3.38097667e+00  1.59406875e+00 -1.71557245e-01 -3.38097667e+00
  1.59406875e+00 -1.71557245e-01 -3.38097667e+00  1.59406875e+00 -1.71557245e-01
 -3.38097667e+00  1.59406875e+00 -1.71557245e-01 -4.05077276e+00  2.93810093e+00
  2.33289454e+00 -4.05077276e+00  2.93810093e+00  2.33289454e+00 -4.05077276e+00
  2.93810093e+00  2.33289454e+00 -4.05077276e+00  2.93810093e+00  2.33289454e+00
 -4.05077276e+00  2.93810093e+00  2.33289454e+00 -4.05077276e+00  2.93810093e+00
  2.33289454e+00 -4.05077276e+00  2.93810093e+00  2.33289454e+00 -4.05077276e+00
  2.93810093e+00  2.33289454e+00 -3.47553874e+00  1.43831077e+00  4.58794766e+00
 -3.47553874e+00  1.43831077e+00  4.58794766e+00 -3.47553874e+00  1.43831077e+00
  4.58794766e+00 -3.47553874e+00  1.43831077e+00  4.58794766e+00 -3.47553874e+00
  1.43831077e+00  4.58794766e+00 -3.47553874e+00  1.43831077e+00  4.58794766e+00
 -3.47553874e+00  1.43831077e+00  4.58794766e+00 -3.47553874e+00  1.43831077e+00
  4.58794766e+00  9.95431318e-01  5.68920658e-02  1.24872212e+00  9.95431318e-01
  5.68920658e-02  1.24872212e+00  9.95431318e-01  5.68920658e-02  1.24872212e+00
  9.95431318e-01  5.68920658e-02  1.24872212e+00  9.95431318e-01  5.68920658e-02
  1.24872212e+00  9.95431318e-01  5.68920658e-02  1.24872212e+00  9.95431318e-01
  5.68920658e-02  1.24872212e+00  9.95431318e-01  5.68920658e-02  1.24872212e+00
  3.30515084e+00 -1.08155457e+00  6.76928402e-01  3.30515084e+00 -1.08155457e+00
  6.76928402e-01  3.30515084e+00 -1.08155457e+00  6.76928402e-01  3.30515084e+00
 -1.08155457e+00  6.76928402e-01  3.30515084e+00 -1.08155457e+00  6.76928402e-01
  3.30515084e+00 -1.08155457e+00  6.76928402e-01  3.30515084e+00 -1.08155457e+00
  6.76928402e-01  3.30515084e+00 -1.08155457e+00  6.76928402e-01  3.75437198e+00
 -1.92726353e+00 -1.77880645e+00  3.75437198e+00 -1.92726353e+00 -1.77880645e+00
  3.75437198e+00 -1.92726353e+00 -1.77880645e+00  3.75437198e+00 -1.92726353e+00
 -1.77880645e+00  3.75437198e+00 -1.92726353e+00 -1.77880645e+00  3.75437198e+00
 -1.92726353e+00 -1.77880645e+00  3.75437198e+00 -1.92726353e+00 -1.77880645e+00
  3.75437198e+00 -1.92726353e+00 -1.77880645e+00  1.93065422e+00 -1.66154486e+00
 -3.67177049e+00  1.93065422e+00 -1.66154486e+00 -3.67177049e+00  1.93065422e+00
 -1.66154486e+00 -3.67177049e+00  1.93065422e+00 -1.66154486e+00 -3.67177049e+00
  1.93065422e+00 -1.66154486e+00 -3.67177049e+00  1.93065422e+00 -1.66154486e+00
 -3.67177049e+00  1.93065422e+00 -1.66154486e+00 -3.67177049e+00  1.93065422e+00
 -1.66154486e+00 -3.67177049e+00 -3.64748346e-01 -5.25619362e-01 -3.07884434e+00
 -3.64748346e-01 -5.25619362e-01 -3.07884434e+00 -3.64748346e-01 -5.25619362e-01
 -3.07884434e+00 -3.64748346e-01 -5.25619362e-01 -3.07884434e+00 -3.64748346e-01
 -5.25619362e-01 -3.07884434e+00 -3.64748346e-01 -5.25619362e-01 -3.07884434e+00
 -3.64748346e-01 -5.25619362e-01 -3.07884434e+00 -3.64748346e-01 -5.25619362e-01
 -3.07884434e+00  6.04721490e-01  6.67268743e-01  3.16424634e+00  6.04721490e-01
  6.67268743e-01  3.16424634e+00  4.73852087e+00 -1.31705260e+00  2.12486612e+00
  4.73852087e+00 -1.31705260e+00  2.12486612e+00 -2.69371090e+00  5.50601286e+00
  2.45748575e+00 -2.69371090e+00  5.50601286e+00  2.45748575e+00 -2.69371090e+00
  5.50601286e+00  2.45748575e+00 -2.69371090e+00  5.50601286e+00  2.45748575e+00
 -2.69371090e+00  5.50601286e+00  2.45748575e+00 -2.69371090e+00  5.50601286e+00
  2.45748575e+00 -2.69371090e+00  5.50601286e+00  2.45748575e+00 -2.69371090e+00
  5.50601286e+00  2.45748575e+00 -6.09815147e+00  3.29577451e+00  2.15535889e+00
 -6.09815147e+00  3.29577451e+00  2.15535889e+00 -5.07759238e+00 -7.98355785e-01
  4.88738036e+00 -5.07759238e+00 -7.98355785e-01  4.88738036e+00 -5.07759238e+00
 -7.98355785e-01  4.88738036e+00 -5.07759238e+00 -7.98355785e-01  4.88738036e+00
 -5.07759238e+00 -7.98355785e-01  4.88738036e+00 -5.07759238e+00 -7.98355785e-01
  4.88738036e+00 -5.07759238e+00 -7.98355785e-01  4.88738036e+00 -5.07759238e+00
 -7.98355785e-01  4.88738036e+00 -3.65485047e+00  2.56885676e+00  6.13516283e+00
 -3.65485047e+00  2.56885676e+00  6.13516283e+00 -4.94426669e+00  1.68077864e+00
 -1.87872446e+00 -4.94426669e+00  1.68077864e+00 -1.87872446e+00 -4.94426669e+00
  1.68077864e+00 -1.87872446e+00 -4.94426669e+00  1.68077864e+00 -1.87872446e+00
 -4.94426669e+00  1.68077864e+00 -1.87872446e+00 -4.94426669e+00  1.68077864e+00
 -1.87872446e+00 -4.94426669e+00  1.68077864e+00 -1.87872446e+00 -4.94426669e+00
  1.68077864e+00 -1.87872446e+00  2.31200775e+00 -2.33263517e+00 -5.57186945e+00
  2.31200775e+00 -2.33263517e+00 -5.57186945e+00 -1.80698557e+00 -2.95124278e-01
 -4.51867740e+00 -1.80698557e+00 -2.95124278e-01 -4.51867740e+00 -6.42153625e-01
  5.27920117e+00  2.59457904e+00 -6.42153625e-01  5.27920117e+00  2.59457904e+00
 -3.34395749e+00  6.56782337e+00  4.11622968e+00 -3.34395749e+00  6.56782337e+00
  4.11622968e+00 -3.12467707e+00  6.63581934e+00  7.78969850e-01 -3.12467707e+00
  6.63581934e+00  7.78969850e-01  6.65819080e+00 -3.35853043e+00 -2.50692580e+00
  6.65819080e+00 -3.35853043e+00 -2.50692580e+00  6.65819080e+00 -3.35853043e+00
 -2.50692580e+00  6.65819080e+00 -3.35853043e+00 -2.50692580e+00  6.65819080e+00
 -3.35853043e+00 -2.50692580e+00  6.65819080e+00 -3.35853043e+00 -2.50692580e+00
  6.65819080e+00 -3.35853043e+00 -2.50692580e+00  6.65819080e+00 -3.35853043e+00
 -2.50692580e+00  6.65819080e+00 -3.35853043e+00 -2.50692580e+00  6.65819080e+00
 -3.35853043e+00 -2.50692580e+00 -4.65431904e+00 -2.16678367e+00  3.39193175e+00
 -4.65431904e+00 -2.16678367e+00  3.39193175e+00 -7.12016669e+00 -3.77046660e-01
  4.80790115e+00 -7.12016669e+00 -3.77046660e-01  4.80790115e+00 -4.65460681e+00
 -1.69910800e+00  6.70067133e+00 -4.65460681e+00 -1.69910800e+00  6.70067133e+00
Total Energy                               R     -9.784738057735343e+02
Alpha Orbital Energies                     R   N=         275
 -1.01563295e+02 -1.91532244e+01 -1.43444841e+01 -1.02876297e+01 -1.02717589e+01
 -1.02359934e+01 -1.02174529e+01 -1.02174063e+01 -1.02172225e+01 -1.02170587e+01
 -1.02147934e+01 -1.02144688e+01 -1.01994004e+01 -9.47845267e+00 -7.24247202e+00
 -7.23289693e+00 -7.23244244e+00 -1.05123661e+00 -9.25037534e-01 -9.04424792e-01
 -8.51225327e-01 -7.79861226e-01 -7.70765288e-01 -7.55728757e-01 -6.76707650e-01
 -6.64210000e-01 -6.33589746e-01 -6.20669782e-01 -5.67376594e-01 -5.12747966e-01
 -5.04109192e-01 -4.91117365e-01 -4.79108030e-01 -4.73048368e-01 -4.55323065e-01
 -4.46619030e-01 -4.37874653e-01 -4.32467611e-01 -4.18297298e-01 -4.06057425e-01
 -3.98001410e-01 -3.93111610e-01 -3.86514571e-01 -3.75904255e-01 -3.67838969e-01
 -3.61717644e-01 -3.38207297e-01 -3.24382029e-01 -2.76516880e-01 -2.65675002e-01
 -2.60609304e-01 -2.43857007e-01 -7.51543595e-02 -3.05047160e-02 -6.73785404e-03
  4.56609468e-03  7.32646693e-03  9.38164401e-03  1.88224924e-02  2.27929912e-02
  3.02543457e-02  3.77680729e-02  4.51419747e-02  5.13491914e-02  5.42551959e-02
  5.91531369e-02  6.78028982e-02  7.18926215e-02  7.56736465e-02  7.83047007e-02
  8.59123934e-02  9.05517389e-02  9.92580683e-02  9.97347406e-02  1.05833826e-01
  1.17168391e-01  1.19500906e-01  1.28580684e-01  1.31334268e-01  1.35208056e-01
  1.36145821e-01  1.40508221e-01  1.45017966e-01  1.53614098e-01  1.56225542e-01
  1.62799504e-01  1.71199874e-01  1.79100824e-01  1.80523132e-01  1.82105757e-01
  1.88861918e-01  1.89237738e-01  1.94854991e-01  2.02189599e-01  2.08342702e-01
  2.16906313e-01  2.19273350e-01  2.21075499e-01  2.22313898e-01  2.27443658e-01
  2.33803208e-01  2.39864166e-01  2.43197622e-01  2.44446834e-01  2.53686776e-01
  2.56923901e-01  2.60455596e-01  2.63396862e-01  2.70965516e-01  2.73246887e-01
  2.79942702e-01  2.86342991e-01  2.93192090e-01  3.06147507e-01  3.12958182e-01
  3.17802936e-01  3.25698198e-01  3.29984744e-01  3.36082852e-01  3.39837230e-01
  3.48405480e-01  3.62082020e-01  3.64202944e-01  3.72692161e-01  3.80453559e-01
  4.07131000e-01  4.22866099e-01  4.33695764e-01  4.48834422e-01  4.53615104e-01
  4.93140432e-01  5.46300432e-01  5.48747936e-01  6.14015752e-01  6.22316976e-01
  6.38104329e-01  6.44790661e-01  6.65966718e-01  6.70680529e-01  6.72729189e-01
  6.80516291e-01  6.87511046e-01  6.99290239e-01  7.04590645e-01  7.14895986e-01
  7.20671417e-01  7.32691993e-01  7.34597135e-01  7.49001892e-01  7.56819618e-01
  7.70520394e-01  8.00048143e-01  8.05343368e-01  8.06321580e-01  8.14223297e-01
  8.27711264e-01  8.36560866e-01  8.57965690e-01  8.63099198e-01  8.74138160e-01
  8.88456656e-01  9.10290109e-01  9.25644823e-01  9.37599743e-01  9.41359565e-01
  9.45994308e-01  9.59076629e-01  9.69868727e-01  9.83843532e-01  1.00271044e+00
  1.01553092e+00  1.02483865e+00  1.02980312e+00  1.03679164e+00  1.06633129e+00
  1.07236737e+00  1.08625282e+00  1.10174800e+00  1.11510444e+00  1.12626165e+00
  1.13364430e+00  1.15018635e+00  1.16182103e+00  1.17715025e+00  1.19057283e+00
  1.21112010e+00  1.21918723e+00  1.24886781e+00  1.27386130e+00  1.28707061e+00
  1.32176267e+00  1.34032907e+00  1.35086175e+00  1.35799301e+00  1.38076455e+00
  1.40284245e+00  1.41918550e+00  1.42498221e+00  1.44896254e+00  1.45093308e+00
  1.46112396e+00  1.48023425e+00  1.49548187e+00  1.50247489e+00  1.54243367e+00
  1.54746310e+00  1.59141544e+00  1.64969410e+00  1.68529254e+00  1.70369798e+00
  1.74138427e+00  1.78348320e+00  1.81756708e+00  1.83864898e+00  1.84901293e+00
  1.87421687e+00  1.89095841e+00  1.92713622e+00  1.95228493e+00  1.95659590e+00
  1.97048227e+00  1.99263503e+00  1.99932177e+00  2.00859511e+00  2.04214455e+00
  2.06489894e+00  2.09257109e+00  2.11599651e+00  2.12435457e+00  2.13241827e+00
  2.13520148e+00  2.15638672e+00  2.17862007e+00  2.21307739e+00  2.25416092e+00
  2.26363063e+00  2.29033247e+00  2.30336763e+00  2.31743859e+00  2.35152254e+00
  2.37095840e+00  2.39039182e+00  2.41271043e+00  2.43989539e+00  2.51764305e+00
  2.55755979e+00  2.56816489e+00  2.58387607e+00  2.63234850e+00  2.65738898e+00
  2.66199105e+00  2.68848967e+00  2.74853039e+00  2.76806574e+00  2.78879622e+00
  2.81221623e+00  2.85124312e+00  2.90646091e+00  3.00050932e+00  3.11722917e+00
  3.23650497e+00  3.37519005e+00  4.11726556e+00  4.21899946e+00  4.23700575e+00
  4.25963628e+00  4.28892138e+00  4.32167895e+00  4.35306191e+00  4.36058086e+00
  4.40206098e+00  4.43492104e+00  4.54400976e+00  4.65301427e+00  4.75991211e+00
Alpha MO coefficients                      R   N=       75625
 -1.55054968e-06 -1.14975357e-05 -1.38305335e-06  8.07765028e-07  4.57348107e-07
  1.30476517e-04  9.90110488e-05 -5.11685655e-05 -3.18416426e-05  1.48201370e-06
 -1.75689521e-06  3.74645173e-06 -1.64951335e-06  1.21976244e-06  1.47441954e-06
  9.42782520e-04 -8.03928248e-04  1.29026560e-04 -8.87467195e-04  2.06433511e-07
 -5.94044853e-07  2.51423853e-06 -1.20772921e-06 -1.28690294e-06  5.56774854e-05
  4.58269118e-06  2.08011942e-07  1.15565584e-05  1.07445600e-06  1.05367471e-06
  1.64258125e-06  8.52880654e-08  7.67173013e-07  6.16933240e-08 -8.68973658e-04
 -2.73382337e-04  2.00319733e-04  2.94730967e-04  3.54965268e-07  1.73488804e-06
  7.17319022e-07 -4.46896987e-07  3.16160384e-07 -1.51120492e-05 -7.47422552e-06
  7.13641971e-06  7.02084438e-06  1.20013859e-06  3.02360611e-07 -6.61229417e-07
  6.92132251e-09 -7.98072088e-08 -5.45381410e-07 -3.04049878e-04  1.23362095e-05