Generated by Psi4
     FORCE                           RHF                       TESTBAS
Number of atoms                            I               26
Charge                                     I                0
Multiplicity                               I                1
Number of electrons                        I               90
Number of alpha electrons                  I               45
Number of beta electrons                   I               45
Number of basis functions                  I              256
Number of independent functions            I              256
Atomic numbers                             I   N=          26
           6           6           6           1           1           7
           6           6           6           6           6           6
           1           1           6           1           1           1
           1           1           1           1           1           1
           1           9
Nuclear charges                            R   N=          26
  6.00000000e+00  6.00000000e+00  6.00000000e+00  1.00000000e+00  1.00000000e+00
  7.00000000e+00  6.00000000e+00  6.00000000e+00  6.00000000e+00  6.00000000e+00
  6.00000000e+00  6.00000000e+00  1.00000000e+00  1.00000000e+00  6.00000000e+00
  1.00000000e+00  1.00000000e+00  1.00000000e+00  1.00000000e+00  1.00000000e+00
  1.00000000e+00  1.00000000e+00  1.00000000e+00  1.00000000e+00  1.00000000e+00
  9.00000000e+00
Current cartesian coordinates              R   N=          78
  8.28841541e-01 -5.79247955e-01 -3.28107782e-02 -5.56565999e-01 -1.96153390e+00
  2.05436652e+00 -3.42044622e+00 -1.28815367e+00  2.26220438e+00  3.72585793e-01
 -1.57876905e+00  3.86756111e+00 -4.08495101e-01 -4.00875066e+00  1.73221436e+00
 -4.86521705e+00 -3.00216000e+00  3.90671756e+00  2.43110891e+00  1.46864074e+00
  4.86132068e-01  3.68190053e+00  2.77007896e+00 -1.44284106e+00  3.30785018e+00
  1.98955947e+00 -3.91944910e+00  1.74757798e+00 -3.23039858e-02 -4.52844251e+00
  5.20545906e-01 -1.30408052e+00 -2.56785838e+00 -4.12615081e+00 -3.14922507e+00
  6.56558145e+00 -4.86408825e+00 -4.76697403e+00  3.14211178e+00  4.92682191e+00
  4.35113523e+00 -1.04407533e+00 -3.84040080e+00  1.47129035e+00  3.03647881e+00
 -4.24396136e+00 -1.53413427e+00  3.71812661e-01 -2.95392676e+00  1.90539170e+00
  4.85948925e+00 -5.86619153e+00  1.86240339e+00  3.19248962e+00 -3.02816081e+00
  2.75399016e+00  1.63157672e+00  2.71673305e+00  2.06084639e+00  2.43341939e+00
  1.51799742e+00 -5.93603934e-01 -6.48824897e+00 -4.44196583e+00 -1.32449996e+00
  7.48821236e+00 -2.14392805e+00 -3.70808037e+00  6.90390703e+00 -5.34506126e+00
 -4.53103515e+00  7.50809616e+00 -6.90885005e-01 -2.90125727e+00 -3.02557970e+00
  4.52041820e+00  3.23850997e+00 -5.81597632e+00
Integer atomic weights                     I   N=          26
          12          12          12           1           1          14
          12          12          12          12          12          12
           1           1          12           1           1           1
           1           1           1           1           1           1
           1          18
Real atomic weights                        R   N=          26
  1.20000000e+01  1.20000000e+01  1.20000000e+01  1.00782503e+00  1.00782503e+00
  1.40030740e+01  1.20000000e+01  1.20000000e+01  1.20000000e+01  1.20000000e+01
  1.20000000e+01  1.20000000e+01  1.00782503e+00  1.00782503e+00  1.20000000e+01
  1.00782503e+00  1.00782503e+00  1.00782503e+00  1.00782503e+00  1.00782503e+00
  1.00782503e+00  1.00782503e+00  1.00782503e+00  1.00782503e+00  1.00782503e+00
  1.89984032e+01
Number of primitive shells                 I              260
Number of contracted shells                I              124
Pure/Cartesian d shells                    I                1
Pure/Cartesian f shells                    I                1
Highest angular momentum                   I                2
Largest degree of contraction              I                6
Shell types                                I   N=         124
           0           0           1           0           1           2
           0           1           0           0           1           0
           1           2           0           1           0           0
           1           0           1           2           0           1
           0           0           0           0           0           0
           1           0           1           2           0           1
           0           0           1           0           1           2
           0           1           0           0           1           0
           1           2           0           1           0           0
           1           0           1           2           0           1
           0           0           1           0           1           2
           0           1           0           0           1           0
           1           2           0           1           0           0
           1           0           1           2           0           1
           0           0           0           0           0           0
           1           0           1           2           0           1
           0           0           0           0           0           0
           0           0           0           0           0           0
           0           0           0           0           0           0
           0           0           0           0           1           0
           1           2           0           1
Number of primitives per shell             I   N=         124
           6           3           3           1           1           1
           1           1           6           3           3           1
           1           1           1           1           6           3
           3           1           1           1           1           1
           3           1           3           1           6           3
           3           1           1           1           1           1
           6           3           3           1           1           1
           1           1           6           3           3           1
           1           1           1           1           6           3
           3           1           1           1           1           1
           6           3           3           1           1           1
           1           1           6           3           3           1
           1           1           1           1           6           3
           3           1           1           1           1           1
           3           1           3           1           6           3
           3           1           1           1           1           1
           3           1           3           1           3           1
           3           1           3           1           3           1
           3           1           3           1           3           1
           3           1           6           3           3           1
           1           1           1           1
Shell to atom map                          I   N=         124
           1           1           1           1           1           1
           1           1           2           2           2           2
           2           2           2           2           3           3
           3           3           3           3           3           3
           4           4           5           5           6           6
           6           6           6           6           6           6
           7           7           7           7           7           7
           7           7           8           8           8           8
           8           8           8           8           9           9
           9           9           9           9           9           9
          10          10          10          10          10          10
          10          10          11          11          11          11
          11          11          11          11          12          12
          12          12          12          12          12          12
          13          13          14          14          15          15
          15          15          15          15          15          15
          16          16          17          17          18          18
          19          19          20          20          21          21
          22          22          23          23          24          24
          25          25          26          26          26          26
          26          26          26          26
Primitive exponents                        R   N=         260
  3.04752490e+03  4.57369510e+02  1.03948690e+02  2.92101550e+01  9.28666300e+00
  3.16392700e+00  7.86827240e+00  1.88128850e+00  5.44249300e-01  7.86827240e+00
  1.88128850e+00  5.44249300e-01  1.68714400e-01  1.68714400e-01  8.00000000e-01
  4.38000000e-02  4.38000000e-02  3.04752490e+03  4.57369510e+02  1.03948690e+02
  2.92101550e+01  9.28666300e+00  3.16392700e+00  7.86827240e+00  1.88128850e+00
  5.44249300e-01  7.86827240e+00  1.88128850e+00  5.44249300e-01  1.68714400e-01
  1.68714400e-01  8.00000000e-01  4.38000000e-02  4.38000000e-02  3.04752490e+03
  4.57369510e+02  1.03948690e+02  2.92101550e+01  9.28666300e+00  3.16392700e+00
  7.86827240e+00  1.88128850e+00  5.44249300e-01  7.86827240e+00  1.88128850e+00
  5.44249300e-01  1.68714400e-01  1.68714400e-01  8.00000000e-01  4.38000000e-02
  4.38000000e-02  1.87311370e+01  2.82539370e+00  6.40121700e-01  1.61277800e-01
  1.87311370e+01  2.82539370e+00  6.40121700e-01  1.61277800e-01  4.17351100e+03
  6.27457900e+02  1.42902100e+02  4.02343300e+01  1.28202100e+01  4.39043700e+00
  1.16263580e+01  2.71628000e+00  7.72218000e-01  1.16263580e+01  2.71628000e+00
  7.72218000e-01  2.12031300e-01  2.12031300e-01  8.00000000e-01  6.39000000e-02
  6.39000000e-02  3.04752490e+03  4.57369510e+02  1.03948690e+02  2.92101550e+01
  9.28666300e+00  3.16392700e+00  7.86827240e+00  1.88128850e+00  5.44249300e-01
  7.86827240e+00  1.88128850e+00  5.44249300e-01  1.68714400e-01  1.68714400e-01
  8.00000000e-01  4.38000000e-02  4.38000000e-02  3.04752490e+03  4.57369510e+02
  1.03948690e+02  2.92101550e+01  9.28666300e+00  3.16392700e+00  7.86827240e+00
  1.88128850e+00  5.44249300e-01  7.86827240e+00  1.88128850e+00  5.44249300e-01
  1.68714400e-01  1.68714400e-01  8.00000000e-01  4.38000000e-02  4.38000000e-02
  3.04752490e+03  4.57369510e+02  1.03948690e+02  2.92101550e+01  9.28666300e+00
  3.16392700e+00  7.86827240e+00  1.88128850e+00  5.44249300e-01  7.86827240e+00
  1.88128850e+00  5.44249300e-01  1.68714400e-01  1.68714400e-01  8.00000000e-01
  4.38000000e-02  4.38000000e-02  3.04752490e+03  4.57369510e+02  1.03948690e+02
  2.92101550e+01  9.28666300e+00  3.16392700e+00  7.86827240e+00  1.88128850e+00
  5.44249300e-01  7.86827240e+00  1.88128850e+00  5.44249300e-01  1.68714400e-01
  1.68714400e-01  8.00000000e-01  4.38000000e-02  4.38000000e-02  3.04752490e+03
  4.57369510e+02  1.03948690e+02  2.92101550e+01  9.28666300e+00  3.16392700e+00
  7.86827240e+00  1.88128850e+00  5.44249300e-01  7.86827240e+00  1.88128850e+00
  5.44249300e-01  1.68714400e-01  1.68714400e-01  8.00000000e-01  4.38000000e-02
  4.38000000e-02  3.04752490e+03  4.57369510e+02  1.03948690e+02  2.92101550e+01
  9.28666300e+00  3.16392700e+00  7.86827240e+00  1.88128850e+00  5.44249300e-01
  7.86827240e+00  1.88128850e+00  5.44249300e-01  1.68714400e-01  1.68714400e-01
  8.00000000e-01  4.38000000e-02  4.38000000e-02  1.87311370e+01  2.82539370e+00
  6.40121700e-01  1.61277800e-01  1.87311370e+01  2.82539370e+00  6.40121700e-01
  1.61277800e-01  3.04752490e+03  4.57369510e+02  1.03948690e+02  2.92101550e+01
  9.28666300e+00  3.16392700e+00  7.86827240e+00  1.88128850e+00  5.44249300e-01
  7.86827240e+00  1.88128850e+00  5.44249300e-01  1.68714400e-01  1.68714400e-01
  8.00000000e-01  4.38000000e-02  4.38000000e-02  1.87311370e+01  2.82539370e+00
  6.40121700e-01  1.61277800e-01  1.87311370e+01  2.82539370e+00  6.40121700e-01
  1.61277800e-01  1.87311370e+01  2.82539370e+00  6.40121700e-01  1.61277800e-01
  1.87311370e+01  2.82539370e+00  6.40121700e-01  1.61277800e-01  1.87311370e+01
  2.82539370e+00  6.40121700e-01  1.61277800e-01  1.87311370e+01  2.82539370e+00
  6.40121700e-01  1.61277800e-01  1.87311370e+01  2.82539370e+00  6.40121700e-01
  1.61277800e-01  1.87311370e+01  2.82539370e+00  6.40121700e-01  1.61277800e-01
  1.87311370e+01  2.82539370e+00  6.40121700e-01  1.61277800e-01  1.87311370e+01
  2.82539370e+00  6.40121700e-01  1.61277800e-01  7.00171309e+03  1.05136609e+03
  2.39285690e+02  6.73974453e+01  2.15199573e+01  7.40310130e+00  2.08479528e+01
  4.80830834e+00  1.34406986e+00  2.08479528e+01  4.80830834e+00  1.34406986e+00
  3.58151393e-01  3.58151393e-01  8.00000000e-01  1.07600000e-01  1.07600000e-01
Contraction coefficients                   R   N=         260
  1.83470016e-03  1.40373012e-02  6.88426061e-02  2.32184421e-01  4.67941342e-01
  3.62312032e-01 -1.19332409e-01 -1.60854212e-01  1.14345648e+00  6.89990956e-02
  3.16423980e-01  7.44308252e-01  1.00000000e+00  1.00000000e+00  1.00000000e+00
  1.00000000e+00  1.00000000e+00  1.83470016e-03  1.40373012e-02  6.88426061e-02
  2.32184421e-01  4.67941342e-01  3.62312032e-01 -1.19332409e-01 -1.60854212e-01
  1.14345648e+00  6.89990956e-02  3.16423980e-01  7.44308252e-01  1.00000000e+00
  1.00000000e+00  1.00000000e+00  1.00000000e+00  1.00000000e+00  1.83470016e-03
  1.40373012e-02  6.88426061e-02  2.32184421e-01  4.67941342e-01  3.62312032e-01
 -1.19332409e-01 -1.60854212e-01  1.14345648e+00  6.89990956e-02  3.16423980e-01
  7.44308252e-01  1.00000000e+00  1.00000000e+00  1.00000000e+00  1.00000000e+00
  1.00000000e+00  3.34945995e-02  2.34726947e-01  8.13757318e-01  1.00000000e+00
  3.34945995e-02  2.34726947e-01  8.13757318e-01  1.00000000e+00  1.83479944e-03
  1.39949958e-02  6.85869792e-02  2.32240930e-01  4.69069858e-01  3.60454891e-01
 -1.14961023e-01 -1.69118034e-01  1.14585223e+00  6.75800232e-02  3.23907111e-01
  7.40895255e-01  1.00000000e+00  1.00000000e+00  1.00000000e+00  1.00000000e+00
  1.00000000e+00  1.83470016e-03  1.40373012e-02  6.88426061e-02  2.32184421e-01
  4.67941342e-01  3.62312032e-01 -1.19332409e-01 -1.60854212e-01  1.14345648e+00
  6.89990956e-02  3.16423980e-01  7.44308252e-01  1.00000000e+00  1.00000000e+00
  1.00000000e+00  1.00000000e+00  1.00000000e+00  1.83470016e-03  1.40373012e-02
  6.88426061e-02  2.32184421e-01  4.67941342e-01  3.62312032e-01 -1.19332409e-01
 -1.60854212e-01  1.14345648e+00  6.89990956e-02  3.16423980e-01  7.44308252e-01
  1.00000000e+00  1.00000000e+00  1.00000000e+00  1.00000000e+00  1.00000000e+00
  1.83470016e-03  1.40373012e-02  6.88426061e-02  2.32184421e-01  4.67941342e-01
  3.62312032e-01 -1.19332409e-01 -1.60854212e-01  1.14345648e+00  6.89990956e-02
  3.16423980e-01  7.44308252e-01  1.00000000e+00  1.00000000e+00  1.00000000e+00
  1.00000000e+00  1.00000000e+00  1.83470016e-03  1.40373012e-02  6.88426061e-02
  2.32184421e-01  4.67941342e-01  3.62312032e-01 -1.19332409e-01 -1.60854212e-01
  1.14345648e+00  6.89990956e-02  3.16423980e-01  7.44308252e-01  1.00000000e+00
  1.00000000e+00  1.00000000e+00  1.00000000e+00  1.00000000e+00  1.83470016e-03
  1.40373012e-02  6.88426061e-02  2.32184421e-01  4.67941342e-01  3.62312032e-01
 -1.19332409e-01 -1.60854212e-01  1.14345648e+00  6.89990956e-02  3.16423980e-01
  7.44308252e-01  1.00000000e+00  1.00000000e+00  1.00000000e+00  1.00000000e+00
  1.00000000e+00  1.83470016e-03  1.40373012e-02  6.88426061e-02  2.32184421e-01
  4.67941342e-01  3.62312032e-01 -1.19332409e-01 -1.60854212e-01  1.14345648e+00
  6.89990956e-02  3.16423980e-01  7.44308252e-01  1.00000000e+00  1.00000000e+00
  1.00000000e+00  1.00000000e+00  1.00000000e+00  3.34945995e-02  2.34726947e-01
  8.13757318e-01  1.00000000e+00  3.34945995e-02  2.34726947e-01  8.13757318e-01
  1.00000000e+00  1.83470016e-03  1.40373012e-02  6.88426061e-02  2.32184421e-01
  4.67941342e-01  3.62312032e-01 -1.19332409e-01 -1.60854212e-01  1.14345648e+00
  6.89990956e-02  3.16423980e-01  7.44308252e-01  1.00000000e+00  1.00000000e+00
  1.00000000e+00  1.00000000e+00  1.00000000e+00  3.34945995e-02  2.34726947e-01
  8.13757318e-01  1.00000000e+00  3.34945995e-02  2.34726947e-01  8.13757318e-01
  1.00000000e+00  3.34945995e-02  2.34726947e-01  8.13757318e-01  1.00000000e+00
  3.34945995e-02  2.34726947e-01  8.13757318e-01  1.00000000e+00  3.34945995e-02
  2.34726947e-01  8.13757318e-01  1.00000000e+00  3.34945995e-02  2.34726947e-01
  8.13757318e-01  1.00000000e+00  3.34945995e-02  2.34726947e-01  8.13757318e-01
  1.00000000e+00  3.34945995e-02  2.34726947e-01  8.13757318e-01  1.00000000e+00
  3.34945995e-02  2.34726947e-01  8.13757318e-01  1.00000000e+00  3.34945995e-02
  2.34726947e-01  8.13757318e-01  1.00000000e+00  1.81961690e-03  1.39160796e-02
  6.84053245e-02  2.33185760e-01  4.71267439e-01  3.56618546e-01 -1.08506975e-01
 -1.46451658e-01  1.12868858e+00  7.16287242e-02  3.45912103e-01  7.22469956e-01
  1.00000000e+00  1.00000000e+00  1.00000000e+00  1.00000000e+00  1.00000000e+00
Coordinates of each shell                  R   N=         372
  8.28841541e-01 -5.79247955e-01 -3.28107782e-02  8.28841541e-01 -5.79247955e-01
 -3.28107782e-02  8.28841541e-01 -5.79247955e-01 -3.28107782e-02  8.28841541e-01
 -5.79247955e-01 -3.28107782e-02  8.28841541e-01 -5.79247955e-01 -3.28107782e-02
  8.28841541e-01 -5.79247955e-01 -3.28107782e-02  8.28841541e-01 -5.79247955e-01
 -3.28107782e-02  8.28841541e-01 -5.79247955e-01 -3.28107782e-02 -5.56565999e-01
 -1.96153390e+00  2.05436652e+00 -5.56565999e-01 -1.96153390e+00  2.05436652e+00
 -5.56565999e-01 -1.96153390e+00  2.05436652e+00 -5.56565999e-01 -1.96153390e+00
  2.05436652e+00 -5.56565999e-01 -1.96153390e+00  2.05436652e+00 -5.56565999e-01
 -1.96153390e+00  2.05436652e+00 -5.56565999e-01 -1.96153390e+00  2.05436652e+00
 -5.56565999e-01 -1.96153390e+00  2.05436652e+00 -3.42044622e+00 -1.28815367e+00
  2.26220438e+00 -3.42044622e+00 -1.28815367e+00  2.26220438e+00 -3.42044622e+00
 -1.28815367e+00  2.26220438e+00 -3.42044622e+00 -1.28815367e+00  2.26220438e+00
 -3.42044622e+00 -1.28815367e+00  2.26220438e+00 -3.42044622e+00 -1.28815367e+00
  2.26220438e+00 -3.42044622e+00 -1.28815367e+00  2.26220438e+00 -3.42044622e+00
 -1.28815367e+00  2.26220438e+00  3.72585793e-01 -1.57876905e+00  3.86756111e+00
  3.72585793e-01 -1.57876905e+00  3.86756111e+00 -4.08495101e-01 -4.00875066e+00
  1.73221436e+00 -4.08495101e-01 -4.00875066e+00  1.73221436e+00 -4.86521705e+00
 -3.00216000e+00  3.90671756e+00 -4.86521705e+00 -3.00216000e+00  3.90671756e+00
 -4.86521705e+00 -3.00216000e+00  3.90671756e+00 -4.86521705e+00 -3.00216000e+00
  3.90671756e+00 -4.86521705e+00 -3.00216000e+00  3.90671756e+00 -4.86521705e+00
 -3.00216000e+00  3.90671756e+00 -4.86521705e+00 -3.00216000e+00  3.90671756e+00
 -4.86521705e+00 -3.00216000e+00  3.90671756e+00  2.43110891e+00  1.46864074e+00
  4.86132068e-01  2.43110891e+00  1.46864074e+00  4.86132068e-01  2.43110891e+00
  1.46864074e+00  4.86132068e-01  2.43110891e+00  1.46864074e+00  4.86132068e-01
  2.43110891e+00  1.46864074e+00  4.86132068e-01  2.43110891e+00  1.46864074e+00
  4.86132068e-01  2.43110891e+00  1.46864074e+00  4.86132068e-01  2.43110891e+00
  1.46864074e+00  4.86132068e-01  3.68190053e+00  2.77007896e+00 -1.44284106e+00
  3.68190053e+00  2.77007896e+00 -1.44284106e+00  3.68190053e+00  2.77007896e+00
 -1.44284106e+00  3.68190053e+00  2.77007896e+00 -1.44284106e+00  3.68190053e+00
  2.77007896e+00 -1.44284106e+00  3.68190053e+00  2.77007896e+00 -1.44284106e+00
  3.68190053e+00  2.77007896e+00 -1.44284106e+00  3.68190053e+00  2.77007896e+00
 -1.44284106e+00  3.30785018e+00  1.98955947e+00 -3.91944910e+00  3.30785018e+00
  1.98955947e+00 -3.91944910e+00  3.30785018e+00  1.98955947e+00 -3.91944910e+00
  3.30785018e+00  1.98955947e+00 -3.91944910e+00  3.30785018e+00  1.98955947e+00
 -3.91944910e+00  3.30785018e+00  1.98955947e+00 -3.91944910e+00  3.30785018e+00
  1.98955947e+00 -3.91944910e+00  3.30785018e+00  1.98955947e+00 -3.91944910e+00
  1.74757798e+00 -3.23039858e-02 -4.52844251e+00  1.74757798e+00 -3.23039858e-02
 -4.52844251e+00  1.74757798e+00 -3.23039858e-02 -4.52844251e+00  1.74757798e+00
 -3.23039858e-02 -4.52844251e+00  1.74757798e+00 -3.23039858e-02 -4.52844251e+00
  1.74757798e+00 -3.23039858e-02 -4.52844251e+00  1.74757798e+00 -3.23039858e-02
 -4.52844251e+00  1.74757798e+00 -3.23039858e-02 -4.52844251e+00  5.20545906e-01
 -1.30408052e+00 -2.56785838e+00  5.20545906e-01 -1.30408052e+00 -2.56785838e+00
  5.20545906e-01 -1.30408052e+00 -2.56785838e+00  5.20545906e-01 -1.30408052e+00
 -2.56785838e+00  5.20545906e-01 -1.30408052e+00 -2.56785838e+00  5.20545906e-01
 -1.30408052e+00 -2.56785838e+00  5.20545906e-01 -1.30408052e+00 -2.56785838e+00
  5.20545906e-01 -1.30408052e+00 -2.56785838e+00 -4.12615081e+00 -3.14922507e+00
  6.56558145e+00 -4.12615081e+00 -3.14922507e+00  6.56558145e+00 -4.12615081e+00
 -3.14922507e+00  6.56558145e+00 -4.12615081e+00 -3.14922507e+00  6.56558145e+00
 -4.12615081e+00 -3.14922507e+00  6.56558145e+00 -4.12615081e+00 -3.14922507e+00
  6.56558145e+00 -4.12615081e+00 -3.14922507e+00  6.56558145e+00 -4.12615081e+00
 -3.14922507e+00  6.56558145e+00 -4.86408825e+00 -4.76697403e+00  3.14211178e+00
 -4.86408825e+00 -4.76697403e+00  3.14211178e+00  4.92682191e+00  4.35113523e+00
 -1.04407533e+00  4.92682191e+00  4.35113523e+00 -1.04407533e+00 -3.84040080e+00
  1.47129035e+00  3.03647881e+00 -3.84040080e+00  1.47129035e+00  3.03647881e+00
 -3.84040080e+00  1.47129035e+00  3.03647881e+00 -3.84040080e+00  1.47129035e+00
  3.03647881e+00 -3.84040080e+00  1.47129035e+00  3.03647881e+00 -3.84040080e+00
  1.47129035e+00  3.03647881e+00 -3.84040080e+00  1.47129035e+00  3.03647881e+00
 -3.84040080e+00  1.47129035e+00  3.03647881e+00 -4.24396136e+00 -1.53413427e+00
  3.71812661e-01 -4.24396136e+00 -1.53413427e+00  3.71812661e-01 -2.95392676e+00
  1.90539170e+00  4.85948925e+00 -2.95392676e+00  1.90539170e+00  4.85948925e+00
 -5.86619153e+00  1.86240339e+00  3.19248962e+00 -5.86619153e+00  1.86240339e+00
  3.19248962e+00 -3.02816081e+00  2.75399016e+00  1.63157672e+00 -3.02816081e+00
  2.75399016e+00  1.63157672e+00  2.71673305e+00  2.06084639e+00  2.43341939e+00
  2.71673305e+00  2.06084639e+00  2.43341939e+00  1.51799742e+00 -5.93603934e-01
 -6.48824897e+00  1.51799742e+00 -5.93603934e-01 -6.48824897e+00 -4.44196583e+00
 -1.32449996e+00  7.48821236e+00 -4.44196583e+00 -1.32449996e+00  7.48821236e+00
 -2.14392805e+00 -3.70808037e+00  6.90390703e+00 -2.14392805e+00 -3.70808037e+00
  6.90390703e+00 -5.34506126e+00 -4.53103515e+00  7.50809616e+00 -5.34506126e+00
 -4.53103515e+00  7.50809616e+00 -6.90885005e-01 -2.90125727e+00 -3.02557970e+00
 -6.90885005e-01 -2.90125727e+00 -3.02557970e+00  4.52041820e+00  3.23850997e+00
 -5.81597632e+00  4.52041820e+00  3.23850997e+00 -5.81597632e+00  4.52041820e+00
  3.23850997e+00 -5.81597632e+00  4.52041820e+00  3.23850997e+00 -5.81597632e+00
  4.52041820e+00  3.23850997e+00 -5.81597632e+00  4.52041820e+00  3.23850997e+00
 -5.81597632e+00  4.52041820e+00  3.23850997e+00 -5.81597632e+00  4.52041820e+00
  3.23850997e+00 -5.81597632e+00
Total Energy                               R     -5.441001524723508e+02
Alpha Orbital Energies                     R   N=         256
 -2.47222081e+01 -1.43276347e+01 -1.02807903e+01 -1.02240421e+01 -1.02098286e+01
 -1.02081743e+01 -1.02078034e+01 -1.02077088e+01 -1.02075547e+01 -1.02070815e+01
 -1.01960369e+01 -1.01775018e+01 -1.22572132e+00 -9.08355208e-01 -8.73084514e-01
 -7.94114903e-01 -7.65324681e-01 -7.46808287e-01 -6.90197343e-01 -6.75346885e-01
 -6.33865909e-01 -6.07064871e-01 -5.71061419e-01 -5.49498755e-01 -5.11284618e-01
 -4.96780406e-01 -4.85696429e-01 -4.68395190e-01 -4.57353798e-01 -4.54158556e-01
 -4.40460927e-01 -4.34734409e-01 -4.21861296e-01 -4.10508153e-01 -3.98657522e-01
 -3.86257040e-01 -3.76187863e-01 -3.69429284e-01 -3.57638949e-01 -3.54346702e-01
 -3.44865609e-01 -3.37131668e-01 -2.69056073e-01 -2.53485526e-01 -2.22200334e-01
 -2.65779442e-02 -1.62500732e-02 -2.51929318e-03  8.12464706e-03  1.28844307e-02
  2.43236888e-02  2.87686768e-02  3.03747519e-02  3.78650447e-02  4.98790925e-02
  5.52278771e-02  5.88911409e-02  6.06967332e-02  6.99012975e-02  7.71985231e-02
  8.38568317e-02  8.55912660e-02  9.21358805e-02  9.82270341e-02  1.04650652e-01
  1.08307018e-01  1.13199663e-01  1.23668095e-01  1.26965920e-01  1.31212101e-01
  1.36571856e-01  1.43529945e-01  1.47851300e-01  1.49985023e-01  1.57310171e-01
  1.64828831e-01  1.67212713e-01  1.75576621e-01  1.81140651e-01  1.86748081e-01
  1.89368464e-01  1.91307929e-01  1.97599108e-01  2.05930672e-01  2.11702421e-01
  2.13903354e-01  2.21347773e-01  2.27098725e-01  2.30120759e-01  2.33786935e-01
  2.37951830e-01  2.42588631e-01  2.48404233e-01  2.53169216e-01  2.54659493e-01
  2.59105342e-01  2.64775517e-01  2.67703357e-01  2.74506378e-01  2.84970795e-01
  2.90353185e-01  2.94485584e-01  2.97846388e-01  3.00386509e-01  3.12306927e-01
  3.23916101e-01  3.28063543e-01  3.37797966e-01  3.57120224e-01  3.60598700e-01
  3.64871638e-01  3.72636654e-01  3.76424205e-01  3.82882272e-01  3.92986561e-01
  3.96455814e-01  4.01952636e-01  4.19075606e-01  4.54673939e-01  4.68400323e-01
  5.77090656e-01  5.97356064e-01  6.42377688e-01  6.47110698e-01  6.64757297e-01
  6.73473252e-01  6.83348398e-01  6.93108468e-01  6.94550527e-01  7.04082902e-01
  7.14978685e-01  7.20325485e-01  7.40826652e-01  7.47139381e-01  7.56042878e-01
  7.66081477e-01  7.69133064e-01  7.88708734e-01  7.99134783e-01  8.08616764e-01
  8.18882573e-01  8.32631763e-01  8.50683667e-01  8.78929966e-01  8.90704476e-01
  8.98793356e-01  9.26263564e-01  9.39282478e-01  9.48926445e-01  9.65265848e-01
  9.74216213e-01  9.82410552e-01  1.00568125e+00  1.01657469e+00  1.02056225e+00
  1.03966674e+00  1.04846491e+00  1.07833987e+00  1.08280378e+00  1.08960564e+00
  1.09690095e+00  1.11128697e+00  1.11795114e+00  1.12330549e+00  1.15174343e+00
  1.16268847e+00  1.18430221e+00  1.20640385e+00  1.21424809e+00  1.23551978e+00
  1.24813804e+00  1.25748958e+00  1.30717288e+00  1.32986699e+00  1.34122546e+00
  1.35614318e+00  1.40362021e+00  1.42462009e+00  1.43884446e+00  1.44960312e+00
  1.47241317e+00  1.49568759e+00  1.50521711e+00  1.53347713e+00  1.58878308e+00
  1.60865148e+00  1.64028651e+00  1.68953430e+00  1.72906752e+00  1.73833976e+00
  1.74974569e+00  1.79088442e+00  1.80359356e+00  1.81931953e+00  1.82661496e+00
  1.83657275e+00  1.85206258e+00  1.87128867e+00  1.87908085e+00  1.90896470e+00
  1.93899354e+00  1.95191997e+00  1.98475155e+00  1.98598364e+00  1.99387020e+00
  2.00871502e+00  2.05135378e+00  2.06389822e+00  2.09001356e+00  2.10626572e+00
  2.12957216e+00  2.14368783e+00  2.15911559e+00  2.17916897e+00  2.18378159e+00
  2.22427671e+00  2.23240482e+00  2.27861486e+00  2.29584516e+00  2.31489762e+00
  2.31975448e+00  2.34017042e+00  2.34969182e+00  2.36771125e+00  2.40289670e+00
  2.41923907e+00  2.48160574e+00  2.51682383e+00  2.54065944e+00  2.59423432e+00
  2.63007703e+00  2.64713091e+00  2.65900197e+00  2.71741959e+00  2.74973446e+00
  2.75696396e+00  2.76836968e+00  2.77556332e+00  2.84782992e+00  2.92845474e+00
  2.96220640e+00  3.14134777e+00  3.20916288e+00  3.43788814e+00  4.07289528e+00
  4.23999135e+00  4.24419081e+00  4.28719276e+00  4.31928921e+00  4.34880280e+00
  4.38010238e+00  4.39311053e+00  4.51976535e+00  4.63330540e+00  4.73676752e+00
  5.95028099e+00
Alpha MO coefficients                      R   N=       65536
 -9.57217789e-06 -4.82165870e-05 -1.29104265e-05 -1.24210663e-05  1.95563102e-05
  8.88146639e-04  4.51870646e-04  4.62563899e-04 -7.04657171e-04 -1.20477615e-05
 -8.25642237e-06 -3.24826578e-06  8.11465602e-06  1.69130502e-06  3.89433191e-06
  3.03565461e-03  1.76649343e-03  1.87767226e-03 -2.70841430e-03 -1.41882973e-06
 -1.41175228e-05  4.40168304e-06  5.28168226e-06 -8.01592399e-06  4.02343895e-04
  1.06797107e-04  9.20760911e-05 -1.48458888e-04  2.99245524e-06  1.88885582e-06
  4.09838701e-06  2.61228646e-06 -4.38967935e-06 -5.19469911e-06  5.20620638e-03
  6.58987995e-04  6.16460582e-04 -9.87856572e-04 -1.14671956e-08 -9.70401860e-08
 -2.15545988e-06  3.38077790e-07 -2.08565057e-06 -2.78847389e-05  5.54353036e-06
  2.31793076e-05  1.71695582e-05 -1.52201920e-06  1.15050761e-06 -1.08767097e-07
 -3.97449698e-07 -5.55441068e-07 -3.45080372e-07  3.50914249e-04 -9.96914306e-05
  7.74646909e-05  1.42248571e-04 -1.58366771e-06 -3.12608797e-05 -2.27023609e-06
 -2.95227844e-05 -1.34948601e-06 -4.82547647e-06 -1.36659240e-06 -4.86160064e-07
  6.68818902e-07  2.67868680e-05  1.03307024e-05 -1.35945530e-06 -7.02499671e-06
 -2.33048989e-06 -3.49613356e-06 -2.70844037e-06  4.92993154e-07 -8.23874690e-07
 -3.29683789e-07  5.23555313e-07  4.16380914e-05 -4.82699065e-05  2.25147033e-05
  1.03820415e-05  4.40707282e-05 -6.33575975e-07  2.25905701e-06  1.71378143e-05
 -1.73621218e-03 -3.83659356e-05  6.16338357e-05  8.77501562e-04  1.40213300e-05
  1.55532492e-05  1.25778762e-05  8.43995762e-06 -6.02693653e-06 -6.64263284e-06
 -3.78983349e-03  7.71367712e-04  1.02453573e-03  5.26509182e-04 -2.13434178e-05
  1.32382604e-05  2.72445173e-05  3.11630873e-05 -2.09350887e-05  2.02256193e-03
 -1.14878825e-03 -1.43109332e-03 -9.36839359e-05 -4.54946049e-05 -4.21469620e-05
 -1.22848695e-04 -9.09487409e-06  3.37709954e-05  2.86310710e-05  3.39399167e-03
 -6.70939998e-04 -9.23647491e-04 -8.21143054e-04 -3.46261660e-05 -1.48509540e-05
  3.03766501e-04  3.13236926e-04 -4.75429288e-04 -5.52997380e-04  1.47948437e-03
  1.52740941e-03 -2.31910335e-03  1.13791304e-04  1.29876114e-04  4.43497277e-04
  2.72570631e-04 -4.02210329e-04 -4.11524247e-04 -6.38711325e-03  1.48201850e-03
  1.50951078e-03 -2.31990954e-03 -2.11677365e-05  1.42836309e-05  1.36766700e-05