Generated by Psi4
     FORCE                           RHF                       TESTBAS
Number of atoms                            I               25
Charge                                     I                0
Multiplicity                               I                1
Number of electrons                        I               96
Number of alpha electrons                  I               48
Number of beta electrons                   I               48
Number of basis functions                  I              271
Number of independent functions            I              271
Atomic numbers                             I   N=          25
           6           6           6           7           6           6
           6           6           6           1           1           1
           1           6           1           1           1           1
           6           1           1           1           1           8
           9
Nuclear charges                            R   N=          25
  6.00000000e+00  6.00000000e+00  6.00000000e+00  7.00000000e+00  6.00000000e+00
  6.00000000e+00  6.00000000e+00  6.00000000e+00  6.00000000e+00  1.00000000e+00
  1.00000000e+00  1.00000000e+00  1.00000000e+00  6.00000000e+00  1.00000000e+00
  1.00000000e+00  1.00000000e+00  1.00000000e+00  6.00000000e+00  1.00000000e+00
  1.00000000e+00  1.00000000e+00  1.00000000e+00  8.00000000e+00  9.00000000e+00
Current cartesian coordinates              R   N=          75
 -2.63812099e-01  1.94216533e-03 -8.46291725e-01 -2.92816748e+00  7.29924743e-01
 -2.12278198e-01 -3.68219171e+00  1.86906735e+00  2.36961811e+00 -2.67605676e+00
  4.76399445e-01  4.54100666e+00  1.74295035e+00  4.99540207e-02  8.97891456e-01
  4.18483260e+00 -6.20809254e-01  1.58971383e-01  4.58942756e+00 -1.33557973e+00
 -2.33452103e+00  2.65659105e+00 -1.41226783e+00 -4.11812257e+00  2.32408810e-01
 -7.40479824e-01 -3.35425662e+00  1.36612341e+00  5.56636803e-01  2.84586819e+00
 -1.32279667e+00 -7.73210253e-01 -4.69043026e+00  5.75128325e+00 -6.03199601e-01
  1.48315549e+00  3.06560698e+00 -1.98418411e+00 -6.04501213e+00 -2.85517712e+00
  4.65349293e+00  2.48866601e+00 -5.76703696e+00  1.81484249e+00  2.32808294e+00
 -7.94759166e-01  4.83772355e+00  2.49472516e+00 -3.59314877e+00  5.53593589e+00
  4.21454290e+00 -3.60961557e+00  5.70284123e+00  8.73365285e-01 -3.77638414e+00
 -2.04176131e+00  4.86684453e+00 -2.97995019e+00  1.52028335e+00  6.12918026e+00
 -3.18285686e+00 -3.27054995e+00  3.30931732e+00 -5.86289891e+00 -2.03935904e+00
  4.91867934e+00 -3.06872482e+00 -2.87026024e+00  6.62506196e+00 -4.58854617e+00
  5.51837863e-01 -1.81887186e+00  6.95931945e+00 -1.99137267e+00 -3.06192854e+00
Integer atomic weights                     I   N=          25
          12          12          12          14          12          12
          12          12          12           1           1           1
           1          12           1           1           1           1
          12           1           1           1           1          15
          18
Real atomic weights                        R   N=          25
  1.20000000e+01  1.20000000e+01  1.20000000e+01  1.40030740e+01  1.20000000e+01
  1.20000000e+01  1.20000000e+01  1.20000000e+01  1.20000000e+01  1.00782503e+00
  1.00782503e+00  1.00782503e+00  1.00782503e+00  1.20000000e+01  1.00782503e+00
  1.00782503e+00  1.00782503e+00  1.00782503e+00  1.20000000e+01  1.00782503e+00
  1.00782503e+00  1.00782503e+00  1.00782503e+00  1.59949146e+01  1.89984032e+01
Number of primitive shells                 I              269
Number of contracted shells                I              128
Pure/Cartesian d shells                    I                1
Pure/Cartesian f shells                    I                1
Highest angular momentum                   I                2
Largest degree of contraction              I                6
Shell types                                I   N=         128
           0           0           1           0           1           2
           0           1           0           0           1           0
           1           2           0           1           0           0
           1           0           1           2           0           1
           0           0           1           0           1           2
           0           1           0           0           1           0
           1           2           0           1           0           0
           1           0           1           2           0           1
           0           0           1           0           1           2
           0           1           0           0           1           0
           1           2           0           1           0           0
           1           0           1           2           0           1
           0           0           0           0           0           0
           0           0           0           0           1           0
           1           2           0           1           0           0
           0           0           0           0           0           0
           0           0           1           0           1           2
           0           1           0           0           0           0
           0           0           0           0           0           0
           1           0           1           2           0           1
           0           0           1           0           1           2
           0           1
Number of primitives per shell             I   N=         128
           6           3           3           1           1           1
           1           1           6           3           3           1
           1           1           1           1           6           3
           3           1           1           1           1           1
           6           3           3           1           1           1
           1           1           6           3           3           1
           1           1           1           1           6           3
           3           1           1           1           1           1
           6           3           3           1           1           1
           1           1           6           3           3           1
           1           1           1           1           6           3
           3           1           1           1           1           1
           3           1           3           1           3           1
           3           1           6           3           3           1
           1           1           1           1           3           1
           3           1           3           1           3           1
           6           3           3           1           1           1
           1           1           3           1           3           1
           3           1           3           1           6           3
           3           1           1           1           1           1
           6           3           3           1           1           1
           1           1
Shell to atom map                          I   N=         128
           1           1           1           1           1           1
           1           1           2           2           2           2
           2           2           2           2           3           3
           3           3           3           3           3           3
           4           4           4           4           4           4
           4           4           5           5           5           5
           5           5           5           5           6           6
           6           6           6           6           6           6
           7           7           7           7           7           7
           7           7           8           8           8           8
           8           8           8           8           9           9
           9           9           9           9           9           9
          10          10          11          11          12          12
          13          13          14          14          14          14
          14          14          14          14          15          15
          16          16          17          17          18          18
          19          19          19          19          19          19
          19          19          20          20          21          21
          22          22          23          23          24          24
          24          24          24          24          24          24
          25          25          25          25          25          25
          25          25
Primitive exponents                        R   N=         269
  3.04752490e+03  4.57369510e+02  1.03948690e+02  2.92101550e+01  9.28666300e+00
  3.16392700e+00  7.86827240e+00  1.88128850e+00  5.44249300e-01  7.86827240e+00
  1.88128850e+00  5.44249300e-01  1.68714400e-01  1.68714400e-01  8.00000000e-01
  4.38000000e-02  4.38000000e-02  3.04752490e+03  4.57369510e+02  1.03948690e+02
  2.92101550e+01  9.28666300e+00  3.16392700e+00  7.86827240e+00  1.88128850e+00
  5.44249300e-01  7.86827240e+00  1.88128850e+00  5.44249300e-01  1.68714400e-01
  1.68714400e-01  8.00000000e-01  4.38000000e-02  4.38000000e-02  3.04752490e+03
  4.57369510e+02  1.03948690e+02  2.92101550e+01  9.28666300e+00  3.16392700e+00
  7.86827240e+00  1.88128850e+00  5.44249300e-01  7.86827240e+00  1.88128850e+00
  5.44249300e-01  1.68714400e-01  1.68714400e-01  8.00000000e-01  4.38000000e-02
  4.38000000e-02  4.17351100e+03  6.27457900e+02  1.42902100e+02  4.02343300e+01
  1.28202100e+01  4.39043700e+00  1.16263580e+01  2.71628000e+00  7.72218000e-01
  1.16263580e+01  2.71628000e+00  7.72218000e-01  2.12031300e-01  2.12031300e-01
  8.00000000e-01  6.39000000e-02  6.39000000e-02  3.04752490e+03  4.57369510e+02
  1.03948690e+02  2.92101550e+01  9.28666300e+00  3.16392700e+00  7.86827240e+00
  1.88128850e+00  5.44249300e-01  7.86827240e+00  1.88128850e+00  5.44249300e-01
  1.68714400e-01  1.68714400e-01  8.00000000e-01  4.38000000e-02  4.38000000e-02
  3.04752490e+03  4.57369510e+02  1.03948690e+02  2.92101550e+01  9.28666300e+00
  3.16392700e+00  7.86827240e+00  1.88128850e+00  5.44249300e-01  7.86827240e+00
  1.88128850e+00  5.44249300e-01  1.68714400e-01  1.68714400e-01  8.00000000e-01
  4.38000000e-02  4.38000000e-02  3.04752490e+03  4.57369510e+02  1.03948690e+02
  2.92101550e+01  9.28666300e+00  3.16392700e+00  7.86827240e+00  1.88128850e+00
  5.44249300e-01  7.86827240e+00  1.88128850e+00  5.44249300e-01  1.68714400e-01
  1.68714400e-01  8.00000000e-01  4.38000000e-02  4.38000000e-02  3.04752490e+03
  4.57369510e+02  1.03948690e+02  2.92101550e+01  9.28666300e+00  3.16392700e+00
  7.86827240e+00  1.88128850e+00  5.44249300e-01  7.86827240e+00  1.88128850e+00
  5.44249300e-01  1.68714400e-01  1.68714400e-01  8.00000000e-01  4.38000000e-02
  4.38000000e-02  3.04752490e+03  4.57369510e+02  1.03948690e+02  2.92101550e+01
  9.28666300e+00  3.16392700e+00  7.86827240e+00  1.88128850e+00  5.44249300e-01
  7.86827240e+00  1.88128850e+00  5.44249300e-01  1.68714400e-01  1.68714400e-01
  8.00000000e-01  4.38000000e-02  4.38000000e-02  1.87311370e+01  2.82539370e+00
  6.40121700e-01  1.61277800e-01  1.87311370e+01  2.82539370e+00  6.40121700e-01
  1.61277800e-01  1.87311370e+01  2.82539370e+00  6.40121700e-01  1.61277800e-01
  1.87311370e+01  2.82539370e+00  6.40121700e-01  1.61277800e-01  3.04752490e+03
  4.57369510e+02  1.03948690e+02  2.92101550e+01  9.28666300e+00  3.16392700e+00
  7.86827240e+00  1.88128850e+00  5.44249300e-01  7.86827240e+00  1.88128850e+00
  5.44249300e-01  1.68714400e-01  1.68714400e-01  8.00000000e-01  4.38000000e-02
  4.38000000e-02  1.87311370e+01  2.82539370e+00  6.40121700e-01  1.61277800e-01
  1.87311370e+01  2.82539370e+00  6.40121700e-01  1.61277800e-01  1.87311370e+01
  2.82539370e+00  6.40121700e-01  1.61277800e-01  1.87311370e+01  2.82539370e+00
  6.40121700e-01  1.61277800e-01  3.04752490e+03  4.57369510e+02  1.03948690e+02
  2.92101550e+01  9.28666300e+00  3.16392700e+00  7.86827240e+00  1.88128850e+00
  5.44249300e-01  7.86827240e+00  1.88128850e+00  5.44249300e-01  1.68714400e-01
  1.68714400e-01  8.00000000e-01  4.38000000e-02  4.38000000e-02  1.87311370e+01
  2.82539370e+00  6.40121700e-01  1.61277800e-01  1.87311370e+01  2.82539370e+00
  6.40121700e-01  1.61277800e-01  1.87311370e+01  2.82539370e+00  6.40121700e-01
  1.61277800e-01  1.87311370e+01  2.82539370e+00  6.40121700e-01  1.61277800e-01
  5.48467170e+03  8.25234950e+02  1.88046960e+02  5.29645000e+01  1.68975700e+01
  5.79963530e+00  1.55396160e+01  3.59993360e+00  1.01376180e+00  1.55396160e+01
  3.59993360e+00  1.01376180e+00  2.70005800e-01  2.70005800e-01  8.00000000e-01
  8.45000000e-02  8.45000000e-02  7.00171309e+03  1.05136609e+03  2.39285690e+02
  6.73974453e+01  2.15199573e+01  7.40310130e+00  2.08479528e+01  4.80830834e+00
  1.34406986e+00  2.08479528e+01  4.80830834e+00  1.34406986e+00  3.58151393e-01
  3.58151393e-01  8.00000000e-01  1.07600000e-01  1.07600000e-01
Contraction coefficients                   R   N=         269
  1.83470016e-03  1.40373012e-02  6.88426061e-02  2.32184421e-01  4.67941342e-01
  3.62312032e-01 -1.19332409e-01 -1.60854212e-01  1.14345648e+00  6.89990956e-02
  3.16423980e-01  7.44308252e-01  1.00000000e+00  1.00000000e+00  1.00000000e+00
  1.00000000e+00  1.00000000e+00  1.83470016e-03  1.40373012e-02  6.88426061e-02
  2.32184421e-01  4.67941342e-01  3.62312032e-01 -1.19332409e-01 -1.60854212e-01
  1.14345648e+00  6.89990956e-02  3.16423980e-01  7.44308252e-01  1.00000000e+00
  1.00000000e+00  1.00000000e+00  1.00000000e+00  1.00000000e+00  1.83470016e-03
  1.40373012e-02  6.88426061e-02  2.32184421e-01  4.67941342e-01  3.62312032e-01
 -1.19332409e-01 -1.60854212e-01  1.14345648e+00  6.89990956e-02  3.16423980e-01
  7.44308252e-01  1.00000000e+00  1.00000000e+00  1.00000000e+00  1.00000000e+00
  1.00000000e+00  1.83479944e-03  1.39949958e-02  6.85869792e-02  2.32240930e-01
  4.69069858e-01  3.60454891e-01 -1.14961023e-01 -1.69118034e-01  1.14585223e+00
  6.75800232e-02  3.23907111e-01  7.40895255e-01  1.00000000e+00  1.00000000e+00
  1.00000000e+00  1.00000000e+00  1.00000000e+00  1.83470016e-03  1.40373012e-02
  6.88426061e-02  2.32184421e-01  4.67941342e-01  3.62312032e-01 -1.19332409e-01
 -1.60854212e-01  1.14345648e+00  6.89990956e-02  3.16423980e-01  7.44308252e-01
  1.00000000e+00  1.00000000e+00  1.00000000e+00  1.00000000e+00  1.00000000e+00
  1.83470016e-03  1.40373012e-02  6.88426061e-02  2.32184421e-01  4.67941342e-01
  3.62312032e-01 -1.19332409e-01 -1.60854212e-01  1.14345648e+00  6.89990956e-02
  3.16423980e-01  7.44308252e-01  1.00000000e+00  1.00000000e+00  1.00000000e+00
  1.00000000e+00  1.00000000e+00  1.83470016e-03  1.40373012e-02  6.88426061e-02
  2.32184421e-01  4.67941342e-01  3.62312032e-01 -1.19332409e-01 -1.60854212e-01
  1.14345648e+00  6.89990956e-02  3.16423980e-01  7.44308252e-01  1.00000000e+00
  1.00000000e+00  1.00000000e+00  1.00000000e+00  1.00000000e+00  1.83470016e-03
  1.40373012e-02  6.88426061e-02  2.32184421e-01  4.67941342e-01  3.62312032e-01
 -1.19332409e-01 -1.60854212e-01  1.14345648e+00  6.89990956e-02  3.16423980e-01
  7.44308252e-01  1.00000000e+00  1.00000000e+00  1.00000000e+00  1.00000000e+00
  1.00000000e+00  1.83470016e-03  1.40373012e-02  6.88426061e-02  2.32184421e-01
  4.67941342e-01  3.62312032e-01 -1.19332409e-01 -1.60854212e-01  1.14345648e+00
  6.89990956e-02  3.16423980e-01  7.44308252e-01  1.00000000e+00  1.00000000e+00
  1.00000000e+00  1.00000000e+00  1.00000000e+00  3.34945995e-02  2.34726947e-01
  8.13757318e-01  1.00000000e+00  3.34945995e-02  2.34726947e-01  8.13757318e-01
  1.00000000e+00  3.34945995e-02  2.34726947e-01  8.13757318e-01  1.00000000e+00
  3.34945995e-02  2.34726947e-01  8.13757318e-01  1.00000000e+00  1.83470016e-03
  1.40373012e-02  6.88426061e-02  2.32184421e-01  4.67941342e-01  3.62312032e-01
 -1.19332409e-01 -1.60854212e-01  1.14345648e+00  6.89990956e-02  3.16423980e-01
  7.44308252e-01  1.00000000e+00  1.00000000e+00  1.00000000e+00  1.00000000e+00
  1.00000000e+00  3.34945995e-02  2.34726947e-01  8.13757318e-01  1.00000000e+00
  3.34945995e-02  2.34726947e-01  8.13757318e-01  1.00000000e+00  3.34945995e-02
  2.34726947e-01  8.13757318e-01  1.00000000e+00  3.34945995e-02  2.34726947e-01
  8.13757318e-01  1.00000000e+00  1.83470016e-03  1.40373012e-02  6.88426061e-02
  2.32184421e-01  4.67941342e-01  3.62312032e-01 -1.19332409e-01 -1.60854212e-01
  1.14345648e+00  6.89990956e-02  3.16423980e-01  7.44308252e-01  1.00000000e+00
  1.00000000e+00  1.00000000e+00  1.00000000e+00  1.00000000e+00  3.34945995e-02
  2.34726947e-01  8.13757318e-01  1.00000000e+00  3.34945995e-02  2.34726947e-01
  8.13757318e-01  1.00000000e+00  3.34945995e-02  2.34726947e-01  8.13757318e-01
  1.00000000e+00  3.34945995e-02  2.34726947e-01  8.13757318e-01  1.00000000e+00
  1.83109981e-03  1.39500985e-02  6.84450927e-02  2.32714275e-01  4.70192950e-01
  3.58520862e-01 -1.10777504e-01 -1.48026305e-01  1.13076704e+00  7.08742995e-02
  3.39752798e-01  7.27158595e-01  1.00000000e+00  1.00000000e+00  1.00000000e+00
  1.00000000e+00  1.00000000e+00  1.81961690e-03  1.39160796e-02  6.84053245e-02
  2.33185760e-01  4.71267439e-01  3.56618546e-01 -1.08506975e-01 -1.46451658e-01
  1.12868858e+00  7.16287242e-02  3.45912103e-01  7.22469956e-01  1.00000000e+00
  1.00000000e+00  1.00000000e+00  1.00000000e+00  1.00000000e+00
Coordinates of each shell                  R   N=         384
 -2.63812099e-01  1.94216533e-03 -8.46291725e-01 -2.63812099e-01  1.94216533e-03
 -8.46291725e-01 -2.63812099e-01  1.94216533e-03 -8.46291725e-01 -2.63812099e-01
  1.94216533e-03 -8.46291725e-01 -2.63812099e-01  1.94216533e-03 -8.46291725e-01
 -2.63812099e-01  1.94216533e-03 -8.46291725e-01 -2.63812099e-01  1.94216533e-03
 -8.46291725e-01 -2.63812099e-01  1.94216533e-03 -8.46291725e-01 -2.92816748e+00
  7.29924743e-01 -2.12278198e-01 -2.92816748e+00  7.29924743e-01 -2.12278198e-01
 -2.92816748e+00  7.29924743e-01 -2.12278198e-01 -2.92816748e+00  7.29924743e-01
 -2.12278198e-01 -2.92816748e+00  7.29924743e-01 -2.12278198e-01 -2.92816748e+00
  7.29924743e-01 -2.12278198e-01 -2.92816748e+00  7.29924743e-01 -2.12278198e-01
 -2.92816748e+00  7.29924743e-01 -2.12278198e-01 -3.68219171e+00  1.86906735e+00
  2.36961811e+00 -3.68219171e+00  1.86906735e+00  2.36961811e+00 -3.68219171e+00
  1.86906735e+00  2.36961811e+00 -3.68219171e+00  1.86906735e+00  2.36961811e+00
 -3.68219171e+00  1.86906735e+00  2.36961811e+00 -3.68219171e+00  1.86906735e+00
  2.36961811e+00 -3.68219171e+00  1.86906735e+00  2.36961811e+00 -3.68219171e+00
  1.86906735e+00  2.36961811e+00 -2.67605676e+00  4.76399445e-01  4.54100666e+00
 -2.67605676e+00  4.76399445e-01  4.54100666e+00 -2.67605676e+00  4.76399445e-01
  4.54100666e+00 -2.67605676e+00  4.76399445e-01  4.54100666e+00 -2.67605676e+00
  4.76399445e-01  4.54100666e+00 -2.67605676e+00  4.76399445e-01  4.54100666e+00
 -2.67605676e+00  4.76399445e-01  4.54100666e+00 -2.67605676e+00  4.76399445e-01
  4.54100666e+00  1.74295035e+00  4.99540207e-02  8.97891456e-01  1.74295035e+00
  4.99540207e-02  8.97891456e-01  1.74295035e+00  4.99540207e-02  8.97891456e-01
  1.74295035e+00  4.99540207e-02  8.97891456e-01  1.74295035e+00  4.99540207e-02
  8.97891456e-01  1.74295035e+00  4.99540207e-02  8.97891456e-01  1.74295035e+00
  4.99540207e-02  8.97891456e-01  1.74295035e+00  4.99540207e-02  8.97891456e-01
  4.18483260e+00 -6.20809254e-01  1.58971383e-01  4.18483260e+00 -6.20809254e-01
  1.58971383e-01  4.18483260e+00 -6.20809254e-01  1.58971383e-01  4.18483260e+00
 -6.20809254e-01  1.58971383e-01  4.18483260e+00 -6.20809254e-01  1.58971383e-01
  4.18483260e+00 -6.20809254e-01  1.58971383e-01  4.18483260e+00 -6.20809254e-01
  1.58971383e-01  4.18483260e+00 -6.20809254e-01  1.58971383e-01  4.58942756e+00
 -1.33557973e+00 -2.33452103e+00  4.58942756e+00 -1.33557973e+00 -2.33452103e+00
  4.58942756e+00 -1.33557973e+00 -2.33452103e+00  4.58942756e+00 -1.33557973e+00
 -2.33452103e+00  4.58942756e+00 -1.33557973e+00 -2.33452103e+00  4.58942756e+00
 -1.33557973e+00 -2.33452103e+00  4.58942756e+00 -1.33557973e+00 -2.33452103e+00
  4.58942756e+00 -1.33557973e+00 -2.33452103e+00  2.65659105e+00 -1.41226783e+00
 -4.11812257e+00  2.65659105e+00 -1.41226783e+00 -4.11812257e+00  2.65659105e+00
 -1.41226783e+00 -4.11812257e+00  2.65659105e+00 -1.41226783e+00 -4.11812257e+00
  2.65659105e+00 -1.41226783e+00 -4.11812257e+00  2.65659105e+00 -1.41226783e+00
 -4.11812257e+00  2.65659105e+00 -1.41226783e+00 -4.11812257e+00  2.65659105e+00
 -1.41226783e+00 -4.11812257e+00  2.32408810e-01 -7.40479824e-01 -3.35425662e+00
  2.32408810e-01 -7.40479824e-01 -3.35425662e+00  2.32408810e-01 -7.40479824e-01
 -3.35425662e+00  2.32408810e-01 -7.40479824e-01 -3.35425662e+00  2.32408810e-01
 -7.40479824e-01 -3.35425662e+00  2.32408810e-01 -7.40479824e-01 -3.35425662e+00
  2.32408810e-01 -7.40479824e-01 -3.35425662e+00  2.32408810e-01 -7.40479824e-01
 -3.35425662e+00  1.36612341e+00  5.56636803e-01  2.84586819e+00  1.36612341e+00
  5.56636803e-01  2.84586819e+00 -1.32279667e+00 -7.73210253e-01 -4.69043026e+00
 -1.32279667e+00 -7.73210253e-01 -4.69043026e+00  5.75128325e+00 -6.03199601e-01
  1.48315549e+00  5.75128325e+00 -6.03199601e-01  1.48315549e+00  3.06560698e+00
 -1.98418411e+00 -6.04501213e+00  3.06560698e+00 -1.98418411e+00 -6.04501213e+00
 -2.85517712e+00  4.65349293e+00  2.48866601e+00 -2.85517712e+00  4.65349293e+00
  2.48866601e+00 -2.85517712e+00  4.65349293e+00  2.48866601e+00 -2.85517712e+00
  4.65349293e+00  2.48866601e+00 -2.85517712e+00  4.65349293e+00  2.48866601e+00
 -2.85517712e+00  4.65349293e+00  2.48866601e+00 -2.85517712e+00  4.65349293e+00
  2.48866601e+00 -2.85517712e+00  4.65349293e+00  2.48866601e+00 -5.76703696e+00
  1.81484249e+00  2.32808294e+00 -5.76703696e+00  1.81484249e+00  2.32808294e+00
 -7.94759166e-01  4.83772355e+00  2.49472516e+00 -7.94759166e-01  4.83772355e+00
  2.49472516e+00 -3.59314877e+00  5.53593589e+00  4.21454290e+00 -3.59314877e+00
  5.53593589e+00  4.21454290e+00 -3.60961557e+00  5.70284123e+00  8.73365285e-01
 -3.60961557e+00  5.70284123e+00  8.73365285e-01 -3.77638414e+00 -2.04176131e+00
  4.86684453e+00 -3.77638414e+00 -2.04176131e+00  4.86684453e+00 -3.77638414e+00
 -2.04176131e+00  4.86684453e+00 -3.77638414e+00 -2.04176131e+00  4.86684453e+00
 -3.77638414e+00 -2.04176131e+00  4.86684453e+00 -3.77638414e+00 -2.04176131e+00
  4.86684453e+00 -3.77638414e+00 -2.04176131e+00  4.86684453e+00 -3.77638414e+00
 -2.04176131e+00  4.86684453e+00 -2.97995019e+00  1.52028335e+00  6.12918026e+00
 -2.97995019e+00  1.52028335e+00  6.12918026e+00 -3.18285686e+00 -3.27054995e+00
  3.30931732e+00 -3.18285686e+00 -3.27054995e+00  3.30931732e+00 -5.86289891e+00
 -2.03935904e+00  4.91867934e+00 -5.86289891e+00 -2.03935904e+00  4.91867934e+00
 -3.06872482e+00 -2.87026024e+00  6.62506196e+00 -3.06872482e+00 -2.87026024e+00
  6.62506196e+00 -4.58854617e+00  5.51837863e-01 -1.81887186e+00 -4.58854617e+00
  5.51837863e-01 -1.81887186e+00 -4.58854617e+00  5.51837863e-01 -1.81887186e+00
 -4.58854617e+00  5.51837863e-01 -1.81887186e+00 -4.58854617e+00  5.51837863e-01
 -1.81887186e+00 -4.58854617e+00  5.51837863e-01 -1.81887186e+00 -4.58854617e+00
  5.51837863e-01 -1.81887186e+00 -4.58854617e+00  5.51837863e-01 -1.81887186e+00
  6.95931945e+00 -1.99137267e+00 -3.06192854e+00  6.95931945e+00 -1.99137267e+00
 -3.06192854e+00  6.95931945e+00 -1.99137267e+00 -3.06192854e+00  6.95931945e+00
 -1.99137267e+00 -3.06192854e+00  6.95931945e+00 -1.99137267e+00 -3.06192854e+00
  6.95931945e+00 -1.99137267e+00 -3.06192854e+00  6.95931945e+00 -1.99137267e+00
 -3.06192854e+00  6.95931945e+00 -1.99137267e+00 -3.06192854e+00
Total Energy                               R     -6.181204348976696e+02
Alpha Orbital Energies                     R   N=         271
 -2.47337175e+01 -1.91510063e+01 -1.43436283e+01 -1.02951425e+01 -1.02859730e+01
 -1.02348873e+01 -1.02167210e+01 -1.02154585e+01 -1.02150921e+01 -1.02143885e+01
 -1.02140691e+01 -1.02136936e+01 -1.01985239e+01 -1.23866625e+00 -1.04913196e+00
 -9.24108144e-01 -8.79237908e-01 -7.83791160e-01 -7.72872237e-01 -7.65938944e-01
 -6.76009186e-01 -6.67555767e-01 -6.40538821e-01 -6.28749422e-01 -5.66637530e-01
 -5.53307671e-01 -5.10650451e-01 -5.04699250e-01 -4.88559369e-01 -4.79740399e-01
 -4.74065726e-01 -4.57116884e-01 -4.51976030e-01 -4.44516340e-01 -4.31753942e-01
 -4.22144638e-01 -4.09025756e-01 -4.05398229e-01 -3.99982354e-01 -3.87174659e-01
 -3.75754627e-01 -3.71097231e-01 -3.59539774e-01 -3.53639309e-01 -2.76621287e-01
 -2.64903667e-01 -2.62445281e-01 -2.43024674e-01 -6.99948617e-02 -3.02134347e-02
 -5.56854597e-03  1.12935931e-02  1.14298697e-02  2.03997943e-02  2.47650666e-02
  3.17186738e-02  3.27802242e-02  4.09215460e-02  5.05623385e-02  5.43184289e-02
  5.99989861e-02  6.59466653e-02  7.02837152e-02  7.72571137e-02  8.46055849e-02
  8.88073308e-02  9.10104784e-02  1.00298749e-01  1.04910593e-01  1.12116540e-01
  1.20257262e-01  1.23724528e-01  1.31554579e-01  1.36743077e-01  1.37805845e-01
  1.41464972e-01  1.44486886e-01  1.51484056e-01  1.57406443e-01  1.67442688e-01
  1.72385578e-01  1.78279738e-01  1.84199005e-01  1.86245674e-01  1.90997274e-01
  1.92696688e-01  1.98309429e-01  2.02399459e-01  2.07789111e-01  2.15318937e-01
  2.19921243e-01  2.26782540e-01  2.29767183e-01  2.35185595e-01  2.38430978e-01
  2.42382394e-01  2.46631203e-01  2.51376954e-01  2.54012921e-01  2.61600906e-01
  2.67126639e-01  2.71323060e-01  2.73069289e-01  2.79720663e-01  2.90145946e-01
  2.99984483e-01  3.05198085e-01  3.15279356e-01  3.19978189e-01  3.27259221e-01
  3.32984994e-01  3.38927891e-01  3.43611554e-01  3.53035510e-01  3.60201950e-01
  3.65077822e-01  3.74284903e-01  3.78012821e-01  3.88679192e-01  3.92302454e-01
  4.15643140e-01  4.23457093e-01  4.36006197e-01  4.48152970e-01  4.52699694e-01
  4.70590749e-01  5.05666713e-01  5.96768567e-01  6.10651729e-01  6.42508522e-01
  6.65057987e-01  6.73717495e-01  6.82382106e-01  6.86262022e-01  6.98480663e-01
  7.08091841e-01  7.13681790e-01  7.23149335e-01  7.31773577e-01  7.33219129e-01
  7.53845727e-01  7.66970936e-01  7.80033946e-01  7.97332128e-01  8.02483114e-01
  8.08866835e-01  8.22995326e-01  8.27793824e-01  8.44745110e-01  8.71900745e-01
  8.89306948e-01  8.91647535e-01  9.03047842e-01  9.35964466e-01  9.44172814e-01
  9.58714375e-01  9.75640069e-01  9.83682631e-01  1.01084888e+00  1.02077920e+00
  1.02287760e+00  1.02892825e+00  1.04421034e+00  1.06560281e+00  1.07829243e+00
  1.08638633e+00  1.09755487e+00  1.12495454e+00  1.13654709e+00  1.14168280e+00
  1.16000057e+00  1.16601692e+00  1.18789304e+00  1.20843007e+00  1.22888116e+00
  1.25079170e+00  1.27360810e+00  1.27913007e+00  1.29556856e+00  1.32662734e+00
  1.34302611e+00  1.35439195e+00  1.36495918e+00  1.37872112e+00  1.41225529e+00
  1.42237967e+00  1.43431426e+00  1.44236426e+00  1.45353473e+00  1.47680943e+00
  1.49306397e+00  1.50199796e+00  1.54120827e+00  1.58446981e+00  1.62720115e+00
  1.64368033e+00  1.66769906e+00  1.69924548e+00  1.70512711e+00  1.72509836e+00
  1.74135864e+00  1.78102256e+00  1.79477423e+00  1.81354067e+00  1.81399716e+00
  1.82985327e+00  1.85896192e+00  1.88108159e+00  1.89225346e+00  1.91543998e+00
  1.92869893e+00  1.94314850e+00  1.94564316e+00  1.97464704e+00  1.98881215e+00
  2.00020638e+00  2.02616327e+00  2.03420854e+00  2.05125692e+00  2.07803487e+00
  2.10253474e+00  2.11954157e+00  2.13656901e+00  2.13921151e+00  2.15041699e+00
  2.17087512e+00  2.22712105e+00  2.25009116e+00  2.27759984e+00  2.28799422e+00
  2.29917714e+00  2.30657027e+00  2.31709623e+00  2.35140896e+00  2.37134522e+00
  2.39525715e+00  2.41009463e+00  2.44111236e+00  2.50477563e+00  2.52541752e+00
  2.56058917e+00  2.57114500e+00  2.59257566e+00  2.64013462e+00  2.66372728e+00
  2.67267528e+00  2.69074892e+00  2.74922101e+00  2.77432327e+00  2.80274145e+00
  2.84986280e+00  2.86789547e+00  2.98219030e+00  3.04207350e+00  3.15650531e+00
  3.20700650e+00  3.24744655e+00  3.43999664e+00  4.11746016e+00  4.23774744e+00
  4.24752648e+00  4.25897496e+00  4.29251137e+00  4.32243309e+00  4.35258297e+00
  4.40118085e+00  4.45740197e+00  4.55279348e+00  4.68250401e+00  4.77039078e+00
  5.96112318e+00
Alpha MO coefficients                      R   N=       73441
 -8.05126450e-06 -3.75287909e-05 -2.61618266e-05  6.45036052e-06  5.55955889e-06
  7.29391172e-04  9.71524014e-04 -2.65627640e-04 -2.79578900e-04 -9.59842054e-06
 -1.41777892e-05 -1.89469354e-06  1.05307754e-07  3.26020876e-06  3.28939479e-06
  6.71631562e-03  2.75132949e-03 -1.13845953e-03 -2.47038775e-03 -3.57153590e-06
 -2.40489718e-05  5.95298759e-06 -2.26059333e-06 -6.61626958e-06  5.13961301e-04
  3.23208379e-04 -8.22057976e-05 -3.77672682e-05  5.99729794e-06 -4.34605225e-06
  8.61278936e-07 -3.51561964e-06 -1.32170099e-06  3.53708762e-06  3.60479622e-03
  6.69777910e-04 -2.07338100e-04 -1.09781801e-04  8.70601431e-07  4.21044203e-06
  4.65232898e-06  1.54815094e-06  5.23170537e-06 -1.26273059e-05 -8.34128675e-05
 -1.20754976e-05 -5.66857703e-05  3.42402409e-06 -9.21030309e-07 -8.39864224e-07
  2.16951444e-06  3.40550371e-06  5.81691462e-07 -3.31204705e-05 -3.90342327e-05
  4.13053413e-05  5.34009313e-05  4.77255922e-07 -1.60805644e-06 -3.20164154e-07
 -3.26437658e-06 -3.09519605e-06  3.99166284e-05  1.10356023e-05  4.88680294e-05
 -1.33182653e-05  1.92959873e-06  3.38035290e-06  3.61699875e-06 -3.63282780e-07
  3.14138674e-07 -4.11307365e-07  3.29381728e-05 -3.51303074e-05 -5.33890301e-05
 -9.41119293e-06  9.76319614e-06  4.34918743e-05 -2.44184925e-06  4.46352974e-06
  1.55750329e-05 -1.78808156e-03 -4.69214227e-04  2.88248144e-04  7.75214642e-04
  2.52951901e-05  6.09998928e-06  5.52993596e-06 -3.73370079e-06  3.47568922e-06