Generated by Psi4
     FORCE                           RHF                       TESTBAS
Number of atoms                            I               36
Charge                                     I                0
Multiplicity                               I                1
Number of electrons                        I              134
Number of alpha electrons                  I               67
Number of beta electrons                   I               67
Number of basis functions                  I              378
Number of independent functions            I              378
Atomic numbers                             I   N=          36
           6           6           6           6           6           6
           6           6           1           9           1           1
           1           6           6           1           8           8
           6           1           1           1           7           1
           6           6           1           1           6           1
           1           1           1           1           1           1
Nuclear charges                            R   N=          36
  6.00000000e+00  6.00000000e+00  6.00000000e+00  6.00000000e+00  6.00000000e+00
  6.00000000e+00  6.00000000e+00  6.00000000e+00  1.00000000e+00  9.00000000e+00
  1.00000000e+00  1.00000000e+00  1.00000000e+00  6.00000000e+00  6.00000000e+00
  1.00000000e+00  8.00000000e+00  8.00000000e+00  6.00000000e+00  1.00000000e+00
  1.00000000e+00  1.00000000e+00  7.00000000e+00  1.00000000e+00  6.00000000e+00
  6.00000000e+00  1.00000000e+00  1.00000000e+00  6.00000000e+00  1.00000000e+00
  1.00000000e+00  1.00000000e+00  1.00000000e+00  1.00000000e+00  1.00000000e+00
  1.00000000e+00
Current cartesian coordinates              R   N=         108
 -8.66712072e-01  1.18629721e+00  7.81645882e-01  3.07590958e+00 -1.42422265e+00
 -2.71333065e-01  1.84526242e+00  9.24448985e-01 -1.57196345e-01  5.56035182e+00
 -1.62317850e+00 -1.13569172e+00  6.81070380e+00  5.62947611e-01 -1.88010873e+00
 -2.80557519e+00 -4.46359403e-01 -6.81749555e-01  3.18233439e+00  3.08004589e+00
 -9.23750264e-01  5.67223614e+00  2.92361590e+00 -1.79165722e+00  6.52351824e+00
 -3.43203560e+00 -1.22714622e+00  9.23434173e+00  3.79638659e-01 -2.71978876e+00
  2.09956150e+00 -3.11934467e+00  3.44793593e-01  6.71244748e+00  4.58905115e+00
 -2.38422029e+00  2.27158110e+00  4.91982901e+00 -8.38238829e-01 -2.90400113e+00
  2.04182343e-01 -3.51981124e+00 -1.07071279e+00  7.10282546e-01  3.62841228e+00
 -1.41867692e+00  3.17065471e+00  5.59290735e-01 -1.51726777e+00  2.34393159e+00
  5.17601059e+00 -6.38588795e-01 -1.72651758e+00  4.23739888e+00 -8.34762274e-01
 -2.34401248e+00  6.87932283e+00 -2.73769773e+00 -1.92437276e+00  7.56469712e+00
  5.45564373e-01 -1.26622971e+00  7.97521406e+00 -4.44801376e-01 -4.36403822e+00
  6.99908809e+00 -5.27449968e+00 -1.99018596e-01  5.70979998e-01 -2.25870590e+00
 -2.44005281e+00 -4.83203692e-01 -7.27618312e+00 -1.64763990e+00 -6.92715761e-01
 -7.53138017e+00 -1.06291609e+00 -3.52782706e+00 -9.05546583e+00 -1.28635016e+00
  3.05243249e-01 -6.84078913e+00 -3.66336304e+00 -4.33946458e-01 -4.96733825e+00
 -1.34463318e+00 -4.86127685e+00 -8.22713099e+00  8.83457721e-01 -3.76186965e+00
 -8.94637010e+00 -2.31378671e+00 -4.39063280e+00 -5.11113156e+00 -7.70510773e-01
 -6.84895300e+00 -4.41607696e+00 -3.35045807e+00 -4.86678515e+00 -1.06163730e+00
 -1.35043905e-01 -4.40677497e+00 -3.30985194e+00  2.23532497e+00 -3.72893331e+00
 -5.77735960e+00  1.66280934e+00  6.46939727e-01
Integer atomic weights                     I   N=          36
          12          12          12          12          12          12
          12          12           1          18           1           1
           1          12          12           1          15          15
          12           1           1           1          14           1
          12          12           1           1          12           1
           1           1           1           1           1           1
Real atomic weights                        R   N=          36
  1.20000000e+01  1.20000000e+01  1.20000000e+01  1.20000000e+01  1.20000000e+01
  1.20000000e+01  1.20000000e+01  1.20000000e+01  1.00782503e+00  1.89984032e+01
  1.00782503e+00  1.00782503e+00  1.00782503e+00  1.20000000e+01  1.20000000e+01
  1.00782503e+00  1.59949146e+01  1.59949146e+01  1.20000000e+01  1.00782503e+00
  1.00782503e+00  1.00782503e+00  1.40030740e+01  1.00782503e+00  1.20000000e+01
  1.20000000e+01  1.00782503e+00  1.00782503e+00  1.20000000e+01  1.00782503e+00
  1.00782503e+00  1.00782503e+00  1.00782503e+00  1.00782503e+00  1.00782503e+00
  1.00782503e+00
Number of primitive shells                 I              378
Number of contracted shells                I              180
Pure/Cartesian d shells                    I                1
Pure/Cartesian f shells                    I                1
Highest angular momentum                   I                2
Largest degree of contraction              I                6
Shell types                                I   N=         180
           0           0           1           0           1           2
           0           1           0           0           1           0
           1           2           0           1           0           0
           1           0           1           2           0           1
           0           0           1           0           1           2
           0           1           0           0           1           0
           1           2           0           1           0           0
           1           0           1           2           0           1
           0           0           1           0           1           2
           0           1           0           0           1           0
           1           2           0           1           0           0
           0           0           1           0           1           2
           0           1           0           0           0           0
           0           0           0           0           1           0
           1           2           0           1           0           0
           1           0           1           2           0           1
           0           0           0           0           1           0
           1           2           0           1           0           0
           1           0           1           2           0           1
           0           0           1           0           1           2
           0           1           0           0           0           0
           0           0           0           0           1           0
           1           2           0           1           0           0
           0           0           1           0           1           2
           0           1           0           0           1           0
           1           2           0           1           0           0
           0           0           0           0           1           0
           1           2           0           1           0           0
           0           0           0           0           0           0
           0           0           0           0           0           0
Number of primitives per shell             I   N=         180
           6           3           3           1           1           1
           1           1           6           3           3           1
           1           1           1           1           6           3
           3           1           1           1           1           1
           6           3           3           1           1           1
           1           1           6           3           3           1
           1           1           1           1           6           3
           3           1           1           1           1           1
           6           3           3           1           1           1
           1           1           6           3           3           1
           1           1           1           1           3           1
           6           3           3           1           1           1
           1           1           3           1           3           1
           3           1           6           3           3           1
           1           1           1           1           6           3
           3           1           1           1           1           1
           3           1           6           3           3           1
           1           1           1           1           6           3
           3           1           1           1           1           1
           6           3           3           1           1           1
           1           1           3           1           3           1
           3           1           6           3           3           1
           1           1           1           1           3           1
           6           3           3           1           1           1
           1           1           6           3           3           1
           1           1           1           1           3           1
           3           1           6           3           3           1
           1           1           1           1           3           1
           3           1           3           1           3           1
           3           1           3           1           3           1
Shell to atom map                          I   N=         180
           1           1           1           1           1           1
           1           1           2           2           2           2
           2           2           2           2           3           3
           3           3           3           3           3           3
           4           4           4           4           4           4
           4           4           5           5           5           5
           5           5           5           5           6           6
           6           6           6           6           6           6
           7           7           7           7           7           7
           7           7           8           8           8           8
           8           8           8           8           9           9
          10          10          10          10          10          10
          10          10          11          11          12          12
          13          13          14          14          14          14
          14          14          14          14          15          15
          15          15          15          15          15          15
          16          16          17          17          17          17
          17          17          17          17          18          18
          18          18          18          18          18          18
          19          19          19          19          19          19
          19          19          20          20          21          21
          22          22          23          23          23          23
          23          23          23          23          24          24
          25          25          25          25          25          25
          25          25          26          26          26          26
          26          26          26          26          27          27
          28          28          29          29          29          29
          29          29          29          29          30          30
          31          31          32          32          33          33
          34          34          35          35          36          36
Primitive exponents                        R   N=         378
  3.04752490e+03  4.57369510e+02  1.03948690e+02  2.92101550e+01  9.28666300e+00
  3.16392700e+00  7.86827240e+00  1.88128850e+00  5.44249300e-01  7.86827240e+00
  1.88128850e+00  5.44249300e-01  1.68714400e-01  1.68714400e-01  8.00000000e-01
  4.38000000e-02  4.38000000e-02  3.04752490e+03  4.57369510e+02  1.03948690e+02
  2.92101550e+01  9.28666300e+00  3.16392700e+00  7.86827240e+00  1.88128850e+00
  5.44249300e-01  7.86827240e+00  1.88128850e+00  5.44249300e-01  1.68714400e-01
  1.68714400e-01  8.00000000e-01  4.38000000e-02  4.38000000e-02  3.04752490e+03
  4.57369510e+02  1.03948690e+02  2.92101550e+01  9.28666300e+00  3.16392700e+00
  7.86827240e+00  1.88128850e+00  5.44249300e-01  7.86827240e+00  1.88128850e+00
  5.44249300e-01  1.68714400e-01  1.68714400e-01  8.00000000e-01  4.38000000e-02
  4.38000000e-02  3.04752490e+03  4.57369510e+02  1.03948690e+02  2.92101550e+01
  9.28666300e+00  3.16392700e+00  7.86827240e+00  1.88128850e+00  5.44249300e-01
  7.86827240e+00  1.88128850e+00  5.44249300e-01  1.68714400e-01  1.68714400e-01
  8.00000000e-01  4.38000000e-02  4.38000000e-02  3.04752490e+03  4.57369510e+02
  1.03948690e+02  2.92101550e+01  9.28666300e+00  3.16392700e+00  7.86827240e+00
  1.88128850e+00  5.44249300e-01  7.86827240e+00  1.88128850e+00  5.44249300e-01
  1.68714400e-01  1.68714400e-01  8.00000000e-01  4.38000000e-02  4.38000000e-02
  3.04752490e+03  4.57369510e+02  1.03948690e+02  2.92101550e+01  9.28666300e+00
  3.16392700e+00  7.86827240e+00  1.88128850e+00  5.44249300e-01  7.86827240e+00
  1.88128850e+00  5.44249300e-01  1.68714400e-01  1.68714400e-01  8.00000000e-01
  4.38000000e-02  4.38000000e-02  3.04752490e+03  4.57369510e+02  1.03948690e+02
  2.92101550e+01  9.28666300e+00  3.16392700e+00  7.86827240e+00  1.88128850e+00
  5.44249300e-01  7.86827240e+00  1.88128850e+00  5.44249300e-01  1.68714400e-01
  1.68714400e-01  8.00000000e-01  4.38000000e-02  4.38000000e-02  3.04752490e+03
  4.57369510e+02  1.03948690e+02  2.92101550e+01  9.28666300e+00  3.16392700e+00
  7.86827240e+00  1.88128850e+00  5.44249300e-01  7.86827240e+00  1.88128850e+00
  5.44249300e-01  1.68714400e-01  1.68714400e-01  8.00000000e-01  4.38000000e-02
  4.38000000e-02  1.87311370e+01  2.82539370e+00  6.40121700e-01  1.61277800e-01
  7.00171309e+03  1.05136609e+03  2.39285690e+02  6.73974453e+01  2.15199573e+01
  7.40310130e+00  2.08479528e+01  4.80830834e+00  1.34406986e+00  2.08479528e+01
  4.80830834e+00  1.34406986e+00  3.58151393e-01  3.58151393e-01  8.00000000e-01
  1.07600000e-01  1.07600000e-01  1.87311370e+01  2.82539370e+00  6.40121700e-01
  1.61277800e-01  1.87311370e+01  2.82539370e+00  6.40121700e-01  1.61277800e-01
  1.87311370e+01  2.82539370e+00  6.40121700e-01  1.61277800e-01  3.04752490e+03
  4.57369510e+02  1.03948690e+02  2.92101550e+01  9.28666300e+00  3.16392700e+00
  7.86827240e+00  1.88128850e+00  5.44249300e-01  7.86827240e+00  1.88128850e+00
  5.44249300e-01  1.68714400e-01  1.68714400e-01  8.00000000e-01  4.38000000e-02
  4.38000000e-02  3.04752490e+03  4.57369510e+02  1.03948690e+02  2.92101550e+01
  9.28666300e+00  3.16392700e+00  7.86827240e+00  1.88128850e+00  5.44249300e-01
  7.86827240e+00  1.88128850e+00  5.44249300e-01  1.68714400e-01  1.68714400e-01
  8.00000000e-01  4.38000000e-02  4.38000000e-02  1.87311370e+01  2.82539370e+00
  6.40121700e-01  1.61277800e-01  5.48467170e+03  8.25234950e+02  1.88046960e+02
  5.29645000e+01  1.68975700e+01  5.79963530e+00  1.55396160e+01  3.59993360e+00
  1.01376180e+00  1.55396160e+01  3.59993360e+00  1.01376180e+00  2.70005800e-01
  2.70005800e-01  8.00000000e-01  8.45000000e-02  8.45000000e-02  5.48467170e+03
  8.25234950e+02  1.88046960e+02  5.29645000e+01  1.68975700e+01  5.79963530e+00
  1.55396160e+01  3.59993360e+00  1.01376180e+00  1.55396160e+01  3.59993360e+00
  1.01376180e+00  2.70005800e-01  2.70005800e-01  8.00000000e-01  8.45000000e-02
  8.45000000e-02  3.04752490e+03  4.57369510e+02  1.03948690e+02  2.92101550e+01
  9.28666300e+00  3.16392700e+00  7.86827240e+00  1.88128850e+00  5.44249300e-01
  7.86827240e+00  1.88128850e+00  5.44249300e-01  1.68714400e-01  1.68714400e-01
  8.00000000e-01  4.38000000e-02  4.38000000e-02  1.87311370e+01  2.82539370e+00
  6.40121700e-01  1.61277800e-01  1.87311370e+01  2.82539370e+00  6.40121700e-01
  1.61277800e-01  1.87311370e+01  2.82539370e+00  6.40121700e-01  1.61277800e-01
  4.17351100e+03  6.27457900e+02  1.42902100e+02  4.02343300e+01  1.28202100e+01
  4.39043700e+00  1.16263580e+01  2.71628000e+00  7.72218000e-01  1.16263580e+01
  2.71628000e+00  7.72218000e-01  2.12031300e-01  2.12031300e-01  8.00000000e-01
  6.39000000e-02  6.39000000e-02  1.87311370e+01  2.82539370e+00  6.40121700e-01
  1.61277800e-01  3.04752490e+03  4.57369510e+02  1.03948690e+02  2.92101550e+01
  9.28666300e+00  3.16392700e+00  7.86827240e+00  1.88128850e+00  5.44249300e-01
  7.86827240e+00  1.88128850e+00  5.44249300e-01  1.68714400e-01  1.68714400e-01
  8.00000000e-01  4.38000000e-02  4.38000000e-02  3.04752490e+03  4.57369510e+02
  1.03948690e+02  2.92101550e+01  9.28666300e+00  3.16392700e+00  7.86827240e+00
  1.88128850e+00  5.44249300e-01  7.86827240e+00  1.88128850e+00  5.44249300e-01
  1.68714400e-01  1.68714400e-01  8.00000000e-01  4.38000000e-02  4.38000000e-02
  1.87311370e+01  2.82539370e+00  6.40121700e-01  1.61277800e-01  1.87311370e+01
  2.82539370e+00  6.40121700e-01  1.61277800e-01  3.04752490e+03  4.57369510e+02
  1.03948690e+02  2.92101550e+01  9.28666300e+00  3.16392700e+00  7.86827240e+00
  1.88128850e+00  5.44249300e-01  7.86827240e+00  1.88128850e+00  5.44249300e-01
  1.68714400e-01  1.68714400e-01  8.00000000e-01  4.38000000e-02  4.38000000e-02
  1.87311370e+01  2.82539370e+00  6.40121700e-01  1.61277800e-01  1.87311370e+01
  2.82539370e+00  6.40121700e-01  1.61277800e-01  1.87311370e+01  2.82539370e+00
  6.40121700e-01  1.61277800e-01  1.87311370e+01  2.82539370e+00  6.40121700e-01
  1.61277800e-01  1.87311370e+01  2.82539370e+00  6.40121700e-01  1.61277800e-01
  1.87311370e+01  2.82539370e+00  6.40121700e-01  1.61277800e-01  1.87311370e+01
  2.82539370e+00  6.40121700e-01  1.61277800e-01
Contraction coefficients                   R   N=         378
  1.83470016e-03  1.40373012e-02  6.88426061e-02  2.32184421e-01  4.67941342e-01
  3.62312032e-01 -1.19332409e-01 -1.60854212e-01  1.14345648e+00  6.89990956e-02
  3.16423980e-01  7.44308252e-01  1.00000000e+00  1.00000000e+00  1.00000000e+00
  1.00000000e+00  1.00000000e+00  1.83470016e-03  1.40373012e-02  6.88426061e-02
  2.32184421e-01  4.67941342e-01  3.62312032e-01 -1.19332409e-01 -1.60854212e-01
  1.14345648e+00  6.89990956e-02  3.16423980e-01  7.44308252e-01  1.00000000e+00
  1.00000000e+00  1.00000000e+00  1.00000000e+00  1.00000000e+00  1.83470016e-03
  1.40373012e-02  6.88426061e-02  2.32184421e-01  4.67941342e-01  3.62312032e-01
 -1.19332409e-01 -1.60854212e-01  1.14345648e+00  6.89990956e-02  3.16423980e-01
  7.44308252e-01  1.00000000e+00  1.00000000e+00  1.00000000e+00  1.00000000e+00
  1.00000000e+00  1.83470016e-03  1.40373012e-02  6.88426061e-02  2.32184421e-01
  4.67941342e-01  3.62312032e-01 -1.19332409e-01 -1.60854212e-01  1.14345648e+00
  6.89990956e-02  3.16423980e-01  7.44308252e-01  1.00000000e+00  1.00000000e+00
  1.00000000e+00  1.00000000e+00  1.00000000e+00  1.83470016e-03  1.40373012e-02
  6.88426061e-02  2.32184421e-01  4.67941342e-01  3.62312032e-01 -1.19332409e-01
 -1.60854212e-01  1.14345648e+00  6.89990956e-02  3.16423980e-01  7.44308252e-01
  1.00000000e+00  1.00000000e+00  1.00000000e+00  1.00000000e+00  1.00000000e+00
  1.83470016e-03  1.40373012e-02  6.88426061e-02  2.32184421e-01  4.67941342e-01
  3.62312032e-01 -1.19332409e-01 -1.60854212e-01  1.14345648e+00  6.89990956e-02
  3.16423980e-01  7.44308252e-01  1.00000000e+00  1.00000000e+00  1.00000000e+00
  1.00000000e+00  1.00000000e+00  1.83470016e-03  1.40373012e-02  6.88426061e-02
  2.32184421e-01  4.67941342e-01  3.62312032e-01 -1.19332409e-01 -1.60854212e-01
  1.14345648e+00  6.89990956e-02  3.16423980e-01  7.44308252e-01  1.00000000e+00
  1.00000000e+00  1.00000000e+00  1.00000000e+00  1.00000000e+00  1.83470016e-03
  1.40373012e-02  6.88426061e-02  2.32184421e-01  4.67941342e-01  3.62312032e-01
 -1.19332409e-01 -1.60854212e-01  1.14345648e+00  6.89990956e-02  3.16423980e-01
  7.44308252e-01  1.00000000e+00  1.00000000e+00  1.00000000e+00  1.00000000e+00
  1.00000000e+00  3.34945995e-02  2.34726947e-01  8.13757318e-01  1.00000000e+00
  1.81961690e-03  1.39160796e-02  6.84053245e-02  2.33185760e-01  4.71267439e-01
  3.56618546e-01 -1.08506975e-01 -1.46451658e-01  1.12868858e+00  7.16287242e-02
  3.45912103e-01  7.22469956e-01  1.00000000e+00  1.00000000e+00  1.00000000e+00
  1.00000000e+00  1.00000000e+00  3.34945995e-02  2.34726947e-01  8.13757318e-01
  1.00000000e+00  3.34945995e-02  2.34726947e-01  8.13757318e-01  1.00000000e+00
  3.34945995e-02  2.34726947e-01  8.13757318e-01  1.00000000e+00  1.83470016e-03
  1.40373012e-02  6.88426061e-02  2.32184421e-01  4.67941342e-01  3.62312032e-01
 -1.19332409e-01 -1.60854212e-01  1.14345648e+00  6.89990956e-02  3.16423980e-01
  7.44308252e-01  1.00000000e+00  1.00000000e+00  1.00000000e+00  1.00000000e+00
  1.00000000e+00  1.83470016e-03  1.40373012e-02  6.88426061e-02  2.32184421e-01
  4.67941342e-01  3.62312032e-01 -1.19332409e-01 -1.60854212e-01  1.14345648e+00
  6.89990956e-02  3.16423980e-01  7.44308252e-01  1.00000000e+00  1.00000000e+00
  1.00000000e+00  1.00000000e+00  1.00000000e+00  3.34945995e-02  2.34726947e-01
  8.13757318e-01  1.00000000e+00  1.83109981e-03  1.39500985e-02  6.84450927e-02
  2.32714275e-01  4.70192950e-01  3.58520862e-01 -1.10777504e-01 -1.48026305e-01
  1.13076704e+00  7.08742995e-02  3.39752798e-01  7.27158595e-01  1.00000000e+00
  1.00000000e+00  1.00000000e+00  1.00000000e+00  1.00000000e+00  1.83109981e-03
  1.39500985e-02  6.84450927e-02  2.32714275e-01  4.70192950e-01  3.58520862e-01
 -1.10777504e-01 -1.48026305e-01  1.13076704e+00  7.08742995e-02  3.39752798e-01
  7.27158595e-01  1.00000000e+00  1.00000000e+00  1.00000000e+00  1.00000000e+00
  1.00000000e+00  1.83470016e-03  1.40373012e-02  6.88426061e-02  2.32184421e-01
  4.67941342e-01  3.62312032e-01 -1.19332409e-01 -1.60854212e-01  1.14345648e+00
  6.89990956e-02  3.16423980e-01  7.44308252e-01  1.00000000e+00  1.00000000e+00
  1.00000000e+00  1.00000000e+00  1.00000000e+00  3.34945995e-02  2.34726947e-01
  8.13757318e-01  1.00000000e+00  3.34945995e-02  2.34726947e-01  8.13757318e-01
  1.00000000e+00  3.34945995e-02  2.34726947e-01  8.13757318e-01  1.00000000e+00
  1.83479944e-03  1.39949958e-02  6.85869792e-02  2.32240930e-01  4.69069858e-01
  3.60454891e-01 -1.14961023e-01 -1.69118034e-01  1.14585223e+00  6.75800232e-02
  3.23907111e-01  7.40895255e-01  1.00000000e+00  1.00000000e+00  1.00000000e+00
  1.00000000e+00  1.00000000e+00  3.34945995e-02  2.34726947e-01  8.13757318e-01
  1.00000000e+00  1.83470016e-03  1.40373012e-02  6.88426061e-02  2.32184421e-01
  4.67941342e-01  3.62312032e-01 -1.19332409e-01 -1.60854212e-01  1.14345648e+00
  6.89990956e-02  3.16423980e-01  7.44308252e-01  1.00000000e+00  1.00000000e+00
  1.00000000e+00  1.00000000e+00  1.00000000e+00  1.83470016e-03  1.40373012e-02
  6.88426061e-02  2.32184421e-01  4.67941342e-01  3.62312032e-01 -1.19332409e-01
 -1.60854212e-01  1.14345648e+00  6.89990956e-02  3.16423980e-01  7.44308252e-01
  1.00000000e+00  1.00000000e+00  1.00000000e+00  1.00000000e+00  1.00000000e+00
  3.34945995e-02  2.34726947e-01  8.13757318e-01  1.00000000e+00  3.34945995e-02
  2.34726947e-01  8.13757318e-01  1.00000000e+00  1.83470016e-03  1.40373012e-02
  6.88426061e-02  2.32184421e-01  4.67941342e-01  3.62312032e-01 -1.19332409e-01
 -1.60854212e-01  1.14345648e+00  6.89990956e-02  3.16423980e-01  7.44308252e-01
  1.00000000e+00  1.00000000e+00  1.00000000e+00  1.00000000e+00  1.00000000e+00
  3.34945995e-02  2.34726947e-01  8.13757318e-01  1.00000000e+00  3.34945995e-02
  2.34726947e-01  8.13757318e-01  1.00000000e+00  3.34945995e-02  2.34726947e-01
  8.13757318e-01  1.00000000e+00  3.34945995e-02  2.34726947e-01  8.13757318e-01
  1.00000000e+00  3.34945995e-02  2.34726947e-01  8.13757318e-01  1.00000000e+00
  3.34945995e-02  2.34726947e-01  8.13757318e-01  1.00000000e+00  3.34945995e-02
  2.34726947e-01  8.13757318e-01  1.00000000e+00
Coordinates of each shell                  R   N=         540
 -8.66712072e-01  1.18629721e+00  7.81645882e-01 -8.66712072e-01  1.18629721e+00
  7.81645882e-01 -8.66712072e-01  1.18629721e+00  7.81645882e-01 -8.66712072e-01
  1.18629721e+00  7.81645882e-01 -8.66712072e-01  1.18629721e+00  7.81645882e-01
 -8.66712072e-01  1.18629721e+00  7.81645882e-01 -8.66712072e-01  1.18629721e+00
  7.81645882e-01 -8.66712072e-01  1.18629721e+00  7.81645882e-01  3.07590958e+00
 -1.42422265e+00 -2.71333065e-01  3.07590958e+00 -1.42422265e+00 -2.71333065e-01
  3.07590958e+00 -1.42422265e+00 -2.71333065e-01  3.07590958e+00 -1.42422265e+00
 -2.71333065e-01  3.07590958e+00 -1.42422265e+00 -2.71333065e-01  3.07590958e+00
 -1.42422265e+00 -2.71333065e-01  3.07590958e+00 -1.42422265e+00 -2.71333065e-01
  3.07590958e+00 -1.42422265e+00 -2.71333065e-01  1.84526242e+00  9.24448985e-01
 -1.57196345e-01  1.84526242e+00  9.24448985e-01 -1.57196345e-01  1.84526242e+00
  9.24448985e-01 -1.57196345e-01  1.84526242e+00  9.24448985e-01 -1.57196345e-01
  1.84526242e+00  9.24448985e-01 -1.57196345e-01  1.84526242e+00  9.24448985e-01
 -1.57196345e-01  1.84526242e+00  9.24448985e-01 -1.57196345e-01  1.84526242e+00
  9.24448985e-01 -1.57196345e-01  5.56035182e+00 -1.62317850e+00 -1.13569172e+00
  5.56035182e+00 -1.62317850e+00 -1.13569172e+00  5.56035182e+00 -1.62317850e+00
 -1.13569172e+00  5.56035182e+00 -1.62317850e+00 -1.13569172e+00  5.56035182e+00
 -1.62317850e+00 -1.13569172e+00  5.56035182e+00 -1.62317850e+00 -1.13569172e+00
  5.56035182e+00 -1.62317850e+00 -1.13569172e+00  5.56035182e+00 -1.62317850e+00
 -1.13569172e+00  6.81070380e+00  5.62947611e-01 -1.88010873e+00  6.81070380e+00
  5.62947611e-01 -1.88010873e+00  6.81070380e+00  5.62947611e-01 -1.88010873e+00
  6.81070380e+00  5.62947611e-01 -1.88010873e+00  6.81070380e+00  5.62947611e-01
 -1.88010873e+00  6.81070380e+00  5.62947611e-01 -1.88010873e+00  6.81070380e+00
  5.62947611e-01 -1.88010873e+00  6.81070380e+00  5.62947611e-01 -1.88010873e+00
 -2.80557519e+00 -4.46359403e-01 -6.81749555e-01 -2.80557519e+00 -4.46359403e-01
 -6.81749555e-01 -2.80557519e+00 -4.46359403e-01 -6.81749555e-01 -2.80557519e+00
 -4.46359403e-01 -6.81749555e-01 -2.80557519e+00 -4.46359403e-01 -6.81749555e-01
 -2.80557519e+00 -4.46359403e-01 -6.81749555e-01 -2.80557519e+00 -4.46359403e-01
 -6.81749555e-01 -2.80557519e+00 -4.46359403e-01 -6.81749555e-01  3.18233439e+00
  3.08004589e+00 -9.23750264e-01  3.18233439e+00  3.08004589e+00 -9.23750264e-01
  3.18233439e+00  3.08004589e+00 -9.23750264e-01  3.18233439e+00  3.08004589e+00
 -9.23750264e-01  3.18233439e+00  3.08004589e+00 -9.23750264e-01  3.18233439e+00
  3.08004589e+00 -9.23750264e-01  3.18233439e+00  3.08004589e+00 -9.23750264e-01
  3.18233439e+00  3.08004589e+00 -9.23750264e-01  5.67223614e+00  2.92361590e+00
 -1.79165722e+00  5.67223614e+00  2.92361590e+00 -1.79165722e+00  5.67223614e+00
  2.92361590e+00 -1.79165722e+00  5.67223614e+00  2.92361590e+00 -1.79165722e+00
  5.67223614e+00  2.92361590e+00 -1.79165722e+00  5.67223614e+00  2.92361590e+00
 -1.79165722e+00  5.67223614e+00  2.92361590e+00 -1.79165722e+00  5.67223614e+00
  2.92361590e+00 -1.79165722e+00  6.52351824e+00 -3.43203560e+00 -1.22714622e+00
  6.52351824e+00 -3.43203560e+00 -1.22714622e+00  9.23434173e+00  3.79638659e-01
 -2.71978876e+00  9.23434173e+00  3.79638659e-01 -2.71978876e+00  9.23434173e+00
  3.79638659e-01 -2.71978876e+00  9.23434173e+00  3.79638659e-01 -2.71978876e+00
  9.23434173e+00  3.79638659e-01 -2.71978876e+00  9.23434173e+00  3.79638659e-01
 -2.71978876e+00  9.23434173e+00  3.79638659e-01 -2.71978876e+00  9.23434173e+00
  3.79638659e-01 -2.71978876e+00  2.09956150e+00 -3.11934467e+00  3.44793593e-01
  2.09956150e+00 -3.11934467e+00  3.44793593e-01  6.71244748e+00  4.58905115e+00
 -2.38422029e+00  6.71244748e+00  4.58905115e+00 -2.38422029e+00  2.27158110e+00
  4.91982901e+00 -8.38238829e-01  2.27158110e+00  4.91982901e+00 -8.38238829e-01
 -2.90400113e+00  2.04182343e-01 -3.51981124e+00 -2.90400113e+00  2.04182343e-01
 -3.51981124e+00 -2.90400113e+00  2.04182343e-01 -3.51981124e+00 -2.90400113e+00
  2.04182343e-01 -3.51981124e+00 -2.90400113e+00  2.04182343e-01 -3.51981124e+00
 -2.90400113e+00  2.04182343e-01 -3.51981124e+00 -2.90400113e+00  2.04182343e-01
 -3.51981124e+00 -2.90400113e+00  2.04182343e-01 -3.51981124e+00 -1.07071279e+00
  7.10282546e-01  3.62841228e+00 -1.07071279e+00  7.10282546e-01  3.62841228e+00
 -1.07071279e+00  7.10282546e-01  3.62841228e+00 -1.07071279e+00  7.10282546e-01
  3.62841228e+00 -1.07071279e+00  7.10282546e-01  3.62841228e+00 -1.07071279e+00
  7.10282546e-01  3.62841228e+00 -1.07071279e+00  7.10282546e-01  3.62841228e+00
 -1.07071279e+00  7.10282546e-01  3.62841228e+00 -1.41867692e+00  3.17065471e+00
  5.59290735e-01 -1.41867692e+00  3.17065471e+00  5.59290735e-01 -1.51726777e+00
  2.34393159e+00  5.17601059e+00 -1.51726777e+00  2.34393159e+00  5.17601059e+00
 -1.51726777e+00  2.34393159e+00  5.17601059e+00 -1.51726777e+00  2.34393159e+00
  5.17601059e+00 -1.51726777e+00  2.34393159e+00  5.17601059e+00 -1.51726777e+00
  2.34393159e+00  5.17601059e+00 -1.51726777e+00  2.34393159e+00  5.17601059e+00
 -1.51726777e+00  2.34393159e+00  5.17601059e+00 -6.38588795e-01 -1.72651758e+00
  4.23739888e+00 -6.38588795e-01 -1.72651758e+00  4.23739888e+00 -6.38588795e-01
 -1.72651758e+00  4.23739888e+00 -6.38588795e-01 -1.72651758e+00  4.23739888e+00
 -6.38588795e-01 -1.72651758e+00  4.23739888e+00 -6.38588795e-01 -1.72651758e+00
  4.23739888e+00 -6.38588795e-01 -1.72651758e+00  4.23739888e+00 -6.38588795e-01
 -1.72651758e+00  4.23739888e+00 -8.34762274e-01 -2.34401248e+00  6.87932283e+00
 -8.34762274e-01 -2.34401248e+00  6.87932283e+00 -8.34762274e-01 -2.34401248e+00