Generated by Psi4
     FORCE                           RHF                       TESTBAS
Number of atoms                            I               34
Charge                                     I                0
Multiplicity                               I                1
Number of electrons                        I              112
Number of alpha electrons                  I               56
Number of beta electrons                   I               56
Number of basis functions                  I              323
Number of independent functions            I              323
Atomic numbers                             I   N=          34
           6           6           6           7           6           6
           6           6           6           1           1           1
           6           1           6           1           1           6
           1           6           8           1           1           1
           1           1           1           1           1           1
           6           1           1           1
Nuclear charges                            R   N=          34
  6.00000000e+00  6.00000000e+00  6.00000000e+00  7.00000000e+00  6.00000000e+00
  6.00000000e+00  6.00000000e+00  6.00000000e+00  6.00000000e+00  1.00000000e+00
  1.00000000e+00  1.00000000e+00  6.00000000e+00  1.00000000e+00  6.00000000e+00
  1.00000000e+00  1.00000000e+00  6.00000000e+00  1.00000000e+00  6.00000000e+00
  8.00000000e+00  1.00000000e+00  1.00000000e+00  1.00000000e+00  1.00000000e+00
  1.00000000e+00  1.00000000e+00  1.00000000e+00  1.00000000e+00  1.00000000e+00
  6.00000000e+00  1.00000000e+00  1.00000000e+00  1.00000000e+00
Current cartesian coordinates              R   N=         102
  2.35147847e-01 -1.12021867e+00 -1.67653619e+00 -2.32117861e+00 -4.83367209e-01
 -6.24857478e-01 -2.63087274e+00  4.16806487e-01  2.12354846e+00 -1.53663179e+00
 -1.46973747e+00  3.83727824e+00  2.51772421e+00 -2.80434755e-01 -6.16148867e-01
  4.82921766e+00 -9.08355571e-01 -1.72009674e+00  4.94303042e+00 -2.40856389e+00
 -3.90054749e+00  2.65543776e+00 -3.25195850e+00 -4.95082030e+00  3.44671304e-01
 -2.60746792e+00 -3.87382038e+00  2.51917226e+00  9.16266452e-01  1.05068401e+00
 -1.41609855e+00 -3.25264949e+00 -4.70568247e+00  6.57133538e+00 -2.19340058e-01
 -8.72706244e-01  7.44413048e+00 -3.05279339e+00 -5.11587131e+00  2.69198422e+00
 -4.42985055e+00 -6.63589248e+00 -1.77055421e+00  3.22501592e+00  2.48731784e+00
 -4.67756682e+00  3.36015394e-01  2.42609483e+00 -1.20654498e-01  3.26597878e+00
  3.75199752e+00 -3.84917431e+00  4.94742630e+00  3.55790208e+00 -1.12868877e+00
  4.02083673e+00  6.79355482e-01 -2.30615976e+00 -1.22398564e+00  6.47628245e+00
 -4.20165548e+00 -6.86340567e-01 -1.95793823e+00  8.97810525e+00 -3.08689153e+00
 -3.72634839e+00  7.94878515e+00 -1.64993969e+00 -6.56086901e+00  7.37878701e+00
 -4.89947562e+00 -6.04918011e+00 -1.80224079e+00  5.95797535e-01  7.36730921e+00
 -1.43029821e+00 -2.74325359e+00  7.57527773e+00 -4.36114956e+00 -1.45111806e+00
  6.60953812e+00  3.79471347e-01 -1.50586724e+00  3.70143772e+00 -4.51661786e+00
  4.18078426e+00  5.36869556e+00 -5.48055027e+00  4.90455575e+00  2.27395988e+00
 -2.97458846e+00  7.68429006e+00  3.92410955e+00 -1.37994490e+00  7.79480930e+00
  5.24669059e+00 -4.49962577e+00  8.86698747e+00  4.67867829e+00 -2.35927726e+00
  8.52065048e+00  2.12857606e+00
Integer atomic weights                     I   N=          34
          12          12          12          14          12          12
          12          12          12           1           1           1
          12           1          12           1           1          12
           1          12          15           1           1           1
           1           1           1           1           1           1
          12           1           1           1
Real atomic weights                        R   N=          34
  1.20000000e+01  1.20000000e+01  1.20000000e+01  1.40030740e+01  1.20000000e+01
  1.20000000e+01  1.20000000e+01  1.20000000e+01  1.20000000e+01  1.00782503e+00
  1.00782503e+00  1.00782503e+00  1.20000000e+01  1.00782503e+00  1.20000000e+01
  1.00782503e+00  1.00782503e+00  1.20000000e+01  1.00782503e+00  1.20000000e+01
  1.59949146e+01  1.00782503e+00  1.00782503e+00  1.00782503e+00  1.00782503e+00
  1.00782503e+00  1.00782503e+00  1.00782503e+00  1.00782503e+00  1.00782503e+00
  1.20000000e+01  1.00782503e+00  1.00782503e+00  1.00782503e+00
Number of primitive shells                 I              331
Number of contracted shells                I              158
Pure/Cartesian d shells                    I                1
Pure/Cartesian f shells                    I                1
Highest angular momentum                   I                2
Largest degree of contraction              I                6
Shell types                                I   N=         158
           0           0           1           0           1           2
           0           1           0           0           1           0
           1           2           0           1           0           0
           1           0           1           2           0           1
           0           0           1           0           1           2
           0           1           0           0           1           0
           1           2           0           1           0           0
           1           0           1           2           0           1
           0           0           1           0           1           2
           0           1           0           0           1           0
           1           2           0           1           0           0
           1           0           1           2           0           1
           0           0           0           0           0           0
           0           0           1           0           1           2
           0           1           0           0           0           0
           1           0           1           2           0           1
           0           0           0           0           0           0
           1           0           1           2           0           1
           0           0           0           0           1           0
           1           2           0           1           0           0
           1           0           1           2           0           1
           0           0           0           0           0           0
           0           0           0           0           0           0
           0           0           0           0           0           0
           0           0           1           0           1           2
           0           1           0           0           0           0
           0           0
Number of primitives per shell             I   N=         158
           6           3           3           1           1           1
           1           1           6           3           3           1
           1           1           1           1           6           3
           3           1           1           1           1           1
           6           3           3           1           1           1
           1           1           6           3           3           1
           1           1           1           1           6           3
           3           1           1           1           1           1
           6           3           3           1           1           1
           1           1           6           3           3           1
           1           1           1           1           6           3
           3           1           1           1           1           1
           3           1           3           1           3           1
           6           3           3           1           1           1
           1           1           3           1           6           3
           3           1           1           1           1           1
           3           1           3           1           6           3
           3           1           1           1           1           1
           3           1           6           3           3           1
           1           1           1           1           6           3
           3           1           1           1           1           1
           3           1           3           1           3           1
           3           1           3           1           3           1
           3           1           3           1           3           1
           6           3           3           1           1           1
           1           1           3           1           3           1
           3           1
Shell to atom map                          I   N=         158
           1           1           1           1           1           1
           1           1           2           2           2           2
           2           2           2           2           3           3
           3           3           3           3           3           3
           4           4           4           4           4           4
           4           4           5           5           5           5
           5           5           5           5           6           6
           6           6           6           6           6           6
           7           7           7           7           7           7
           7           7           8           8           8           8
           8           8           8           8           9           9
           9           9           9           9           9           9
          10          10          11          11          12          12
          13          13          13          13          13          13
          13          13          14          14          15          15
          15          15          15          15          15          15
          16          16          17          17          18          18
          18          18          18          18          18          18
          19          19          20          20          20          20
          20          20          20          20          21          21
          21          21          21          21          21          21
          22          22          23          23          24          24
          25          25          26          26          27          27
          28          28          29          29          30          30
          31          31          31          31          31          31
          31          31          32          32          33          33
          34          34
Primitive exponents                        R   N=         331
  3.04752490e+03  4.57369510e+02  1.03948690e+02  2.92101550e+01  9.28666300e+00
  3.16392700e+00  7.86827240e+00  1.88128850e+00  5.44249300e-01  7.86827240e+00
  1.88128850e+00  5.44249300e-01  1.68714400e-01  1.68714400e-01  8.00000000e-01
  4.38000000e-02  4.38000000e-02  3.04752490e+03  4.57369510e+02  1.03948690e+02
  2.92101550e+01  9.28666300e+00  3.16392700e+00  7.86827240e+00  1.88128850e+00
  5.44249300e-01  7.86827240e+00  1.88128850e+00  5.44249300e-01  1.68714400e-01
  1.68714400e-01  8.00000000e-01  4.38000000e-02  4.38000000e-02  3.04752490e+03
  4.57369510e+02  1.03948690e+02  2.92101550e+01  9.28666300e+00  3.16392700e+00
  7.86827240e+00  1.88128850e+00  5.44249300e-01  7.86827240e+00  1.88128850e+00
  5.44249300e-01  1.68714400e-01  1.68714400e-01  8.00000000e-01  4.38000000e-02
  4.38000000e-02  4.17351100e+03  6.27457900e+02  1.42902100e+02  4.02343300e+01
  1.28202100e+01  4.39043700e+00  1.16263580e+01  2.71628000e+00  7.72218000e-01
  1.16263580e+01  2.71628000e+00  7.72218000e-01  2.12031300e-01  2.12031300e-01
  8.00000000e-01  6.39000000e-02  6.39000000e-02  3.04752490e+03  4.57369510e+02
  1.03948690e+02  2.92101550e+01  9.28666300e+00  3.16392700e+00  7.86827240e+00
  1.88128850e+00  5.44249300e-01  7.86827240e+00  1.88128850e+00  5.44249300e-01
  1.68714400e-01  1.68714400e-01  8.00000000e-01  4.38000000e-02  4.38000000e-02
  3.04752490e+03  4.57369510e+02  1.03948690e+02  2.92101550e+01  9.28666300e+00
  3.16392700e+00  7.86827240e+00  1.88128850e+00  5.44249300e-01  7.86827240e+00
  1.88128850e+00  5.44249300e-01  1.68714400e-01  1.68714400e-01  8.00000000e-01
  4.38000000e-02  4.38000000e-02  3.04752490e+03  4.57369510e+02  1.03948690e+02
  2.92101550e+01  9.28666300e+00  3.16392700e+00  7.86827240e+00  1.88128850e+00
  5.44249300e-01  7.86827240e+00  1.88128850e+00  5.44249300e-01  1.68714400e-01
  1.68714400e-01  8.00000000e-01  4.38000000e-02  4.38000000e-02  3.04752490e+03
  4.57369510e+02  1.03948690e+02  2.92101550e+01  9.28666300e+00  3.16392700e+00
  7.86827240e+00  1.88128850e+00  5.44249300e-01  7.86827240e+00  1.88128850e+00
  5.44249300e-01  1.68714400e-01  1.68714400e-01  8.00000000e-01  4.38000000e-02
  4.38000000e-02  3.04752490e+03  4.57369510e+02  1.03948690e+02  2.92101550e+01
  9.28666300e+00  3.16392700e+00  7.86827240e+00  1.88128850e+00  5.44249300e-01
  7.86827240e+00  1.88128850e+00  5.44249300e-01  1.68714400e-01  1.68714400e-01
  8.00000000e-01  4.38000000e-02  4.38000000e-02  1.87311370e+01  2.82539370e+00
  6.40121700e-01  1.61277800e-01  1.87311370e+01  2.82539370e+00  6.40121700e-01
  1.61277800e-01  1.87311370e+01  2.82539370e+00  6.40121700e-01  1.61277800e-01
  3.04752490e+03  4.57369510e+02  1.03948690e+02  2.92101550e+01  9.28666300e+00
  3.16392700e+00  7.86827240e+00  1.88128850e+00  5.44249300e-01  7.86827240e+00
  1.88128850e+00  5.44249300e-01  1.68714400e-01  1.68714400e-01  8.00000000e-01
  4.38000000e-02  4.38000000e-02  1.87311370e+01  2.82539370e+00  6.40121700e-01
  1.61277800e-01  3.04752490e+03  4.57369510e+02  1.03948690e+02  2.92101550e+01
  9.28666300e+00  3.16392700e+00  7.86827240e+00  1.88128850e+00  5.44249300e-01
  7.86827240e+00  1.88128850e+00  5.44249300e-01  1.68714400e-01  1.68714400e-01
  8.00000000e-01  4.38000000e-02  4.38000000e-02  1.87311370e+01  2.82539370e+00
  6.40121700e-01  1.61277800e-01  1.87311370e+01  2.82539370e+00  6.40121700e-01
  1.61277800e-01  3.04752490e+03  4.57369510e+02  1.03948690e+02  2.92101550e+01
  9.28666300e+00  3.16392700e+00  7.86827240e+00  1.88128850e+00  5.44249300e-01
  7.86827240e+00  1.88128850e+00  5.44249300e-01  1.68714400e-01  1.68714400e-01
  8.00000000e-01  4.38000000e-02  4.38000000e-02  1.87311370e+01  2.82539370e+00
  6.40121700e-01  1.61277800e-01  3.04752490e+03  4.57369510e+02  1.03948690e+02
  2.92101550e+01  9.28666300e+00  3.16392700e+00  7.86827240e+00  1.88128850e+00
  5.44249300e-01  7.86827240e+00  1.88128850e+00  5.44249300e-01  1.68714400e-01
  1.68714400e-01  8.00000000e-01  4.38000000e-02  4.38000000e-02  5.48467170e+03
  8.25234950e+02  1.88046960e+02  5.29645000e+01  1.68975700e+01  5.79963530e+00
  1.55396160e+01  3.59993360e+00  1.01376180e+00  1.55396160e+01  3.59993360e+00
  1.01376180e+00  2.70005800e-01  2.70005800e-01  8.00000000e-01  8.45000000e-02
  8.45000000e-02  1.87311370e+01  2.82539370e+00  6.40121700e-01  1.61277800e-01
  1.87311370e+01  2.82539370e+00  6.40121700e-01  1.61277800e-01  1.87311370e+01
  2.82539370e+00  6.40121700e-01  1.61277800e-01  1.87311370e+01  2.82539370e+00
  6.40121700e-01  1.61277800e-01  1.87311370e+01  2.82539370e+00  6.40121700e-01
  1.61277800e-01  1.87311370e+01  2.82539370e+00  6.40121700e-01  1.61277800e-01
  1.87311370e+01  2.82539370e+00  6.40121700e-01  1.61277800e-01  1.87311370e+01
  2.82539370e+00  6.40121700e-01  1.61277800e-01  1.87311370e+01  2.82539370e+00
  6.40121700e-01  1.61277800e-01  3.04752490e+03  4.57369510e+02  1.03948690e+02
  2.92101550e+01  9.28666300e+00  3.16392700e+00  7.86827240e+00  1.88128850e+00
  5.44249300e-01  7.86827240e+00  1.88128850e+00  5.44249300e-01  1.68714400e-01
  1.68714400e-01  8.00000000e-01  4.38000000e-02  4.38000000e-02  1.87311370e+01
  2.82539370e+00  6.40121700e-01  1.61277800e-01  1.87311370e+01  2.82539370e+00
  6.40121700e-01  1.61277800e-01  1.87311370e+01  2.82539370e+00  6.40121700e-01
  1.61277800e-01
Contraction coefficients                   R   N=         331
  1.83470016e-03  1.40373012e-02  6.88426061e-02  2.32184421e-01  4.67941342e-01
  3.62312032e-01 -1.19332409e-01 -1.60854212e-01  1.14345648e+00  6.89990956e-02
  3.16423980e-01  7.44308252e-01  1.00000000e+00  1.00000000e+00  1.00000000e+00
  1.00000000e+00  1.00000000e+00  1.83470016e-03  1.40373012e-02  6.88426061e-02
  2.32184421e-01  4.67941342e-01  3.62312032e-01 -1.19332409e-01 -1.60854212e-01
  1.14345648e+00  6.89990956e-02  3.16423980e-01  7.44308252e-01  1.00000000e+00
  1.00000000e+00  1.00000000e+00  1.00000000e+00  1.00000000e+00  1.83470016e-03
  1.40373012e-02  6.88426061e-02  2.32184421e-01  4.67941342e-01  3.62312032e-01
 -1.19332409e-01 -1.60854212e-01  1.14345648e+00  6.89990956e-02  3.16423980e-01
  7.44308252e-01  1.00000000e+00  1.00000000e+00  1.00000000e+00  1.00000000e+00
  1.00000000e+00  1.83479944e-03  1.39949958e-02  6.85869792e-02  2.32240930e-01
  4.69069858e-01  3.60454891e-01 -1.14961023e-01 -1.69118034e-01  1.14585223e+00
  6.75800232e-02  3.23907111e-01  7.40895255e-01  1.00000000e+00  1.00000000e+00
  1.00000000e+00  1.00000000e+00  1.00000000e+00  1.83470016e-03  1.40373012e-02
  6.88426061e-02  2.32184421e-01  4.67941342e-01  3.62312032e-01 -1.19332409e-01
 -1.60854212e-01  1.14345648e+00  6.89990956e-02  3.16423980e-01  7.44308252e-01
  1.00000000e+00  1.00000000e+00  1.00000000e+00  1.00000000e+00  1.00000000e+00
  1.83470016e-03  1.40373012e-02  6.88426061e-02  2.32184421e-01  4.67941342e-01
  3.62312032e-01 -1.19332409e-01 -1.60854212e-01  1.14345648e+00  6.89990956e-02
  3.16423980e-01  7.44308252e-01  1.00000000e+00  1.00000000e+00  1.00000000e+00
  1.00000000e+00  1.00000000e+00  1.83470016e-03  1.40373012e-02  6.88426061e-02
  2.32184421e-01  4.67941342e-01  3.62312032e-01 -1.19332409e-01 -1.60854212e-01
  1.14345648e+00  6.89990956e-02  3.16423980e-01  7.44308252e-01  1.00000000e+00
  1.00000000e+00  1.00000000e+00  1.00000000e+00  1.00000000e+00  1.83470016e-03
  1.40373012e-02  6.88426061e-02  2.32184421e-01  4.67941342e-01  3.62312032e-01
 -1.19332409e-01 -1.60854212e-01  1.14345648e+00  6.89990956e-02  3.16423980e-01
  7.44308252e-01  1.00000000e+00  1.00000000e+00  1.00000000e+00  1.00000000e+00
  1.00000000e+00  1.83470016e-03  1.40373012e-02  6.88426061e-02  2.32184421e-01
  4.67941342e-01  3.62312032e-01 -1.19332409e-01 -1.60854212e-01  1.14345648e+00
  6.89990956e-02  3.16423980e-01  7.44308252e-01  1.00000000e+00  1.00000000e+00
  1.00000000e+00  1.00000000e+00  1.00000000e+00  3.34945995e-02  2.34726947e-01
  8.13757318e-01  1.00000000e+00  3.34945995e-02  2.34726947e-01  8.13757318e-01
  1.00000000e+00  3.34945995e-02  2.34726947e-01  8.13757318e-01  1.00000000e+00
  1.83470016e-03  1.40373012e-02  6.88426061e-02  2.32184421e-01  4.67941342e-01
  3.62312032e-01 -1.19332409e-01 -1.60854212e-01  1.14345648e+00  6.89990956e-02
  3.16423980e-01  7.44308252e-01  1.00000000e+00  1.00000000e+00  1.00000000e+00
  1.00000000e+00  1.00000000e+00  3.34945995e-02  2.34726947e-01  8.13757318e-01
  1.00000000e+00  1.83470016e-03  1.40373012e-02  6.88426061e-02  2.32184421e-01
  4.67941342e-01  3.62312032e-01 -1.19332409e-01 -1.60854212e-01  1.14345648e+00
  6.89990956e-02  3.16423980e-01  7.44308252e-01  1.00000000e+00  1.00000000e+00
  1.00000000e+00  1.00000000e+00  1.00000000e+00  3.34945995e-02  2.34726947e-01
  8.13757318e-01  1.00000000e+00  3.34945995e-02  2.34726947e-01  8.13757318e-01
  1.00000000e+00  1.83470016e-03  1.40373012e-02  6.88426061e-02  2.32184421e-01
  4.67941342e-01  3.62312032e-01 -1.19332409e-01 -1.60854212e-01  1.14345648e+00
  6.89990956e-02  3.16423980e-01  7.44308252e-01  1.00000000e+00  1.00000000e+00
  1.00000000e+00  1.00000000e+00  1.00000000e+00  3.34945995e-02  2.34726947e-01
  8.13757318e-01  1.00000000e+00  1.83470016e-03  1.40373012e-02  6.88426061e-02
  2.32184421e-01  4.67941342e-01  3.62312032e-01 -1.19332409e-01 -1.60854212e-01
  1.14345648e+00  6.89990956e-02  3.16423980e-01  7.44308252e-01  1.00000000e+00
  1.00000000e+00  1.00000000e+00  1.00000000e+00  1.00000000e+00  1.83109981e-03
  1.39500985e-02  6.84450927e-02  2.32714275e-01  4.70192950e-01  3.58520862e-01
 -1.10777504e-01 -1.48026305e-01  1.13076704e+00  7.08742995e-02  3.39752798e-01
  7.27158595e-01  1.00000000e+00  1.00000000e+00  1.00000000e+00  1.00000000e+00
  1.00000000e+00  3.34945995e-02  2.34726947e-01  8.13757318e-01  1.00000000e+00
  3.34945995e-02  2.34726947e-01  8.13757318e-01  1.00000000e+00  3.34945995e-02
  2.34726947e-01  8.13757318e-01  1.00000000e+00  3.34945995e-02  2.34726947e-01
  8.13757318e-01  1.00000000e+00  3.34945995e-02  2.34726947e-01  8.13757318e-01
  1.00000000e+00  3.34945995e-02  2.34726947e-01  8.13757318e-01  1.00000000e+00
  3.34945995e-02  2.34726947e-01  8.13757318e-01  1.00000000e+00  3.34945995e-02
  2.34726947e-01  8.13757318e-01  1.00000000e+00  3.34945995e-02  2.34726947e-01
  8.13757318e-01  1.00000000e+00  1.83470016e-03  1.40373012e-02  6.88426061e-02
  2.32184421e-01  4.67941342e-01  3.62312032e-01 -1.19332409e-01 -1.60854212e-01
  1.14345648e+00  6.89990956e-02  3.16423980e-01  7.44308252e-01  1.00000000e+00
  1.00000000e+00  1.00000000e+00  1.00000000e+00  1.00000000e+00  3.34945995e-02
  2.34726947e-01  8.13757318e-01  1.00000000e+00  3.34945995e-02  2.34726947e-01
  8.13757318e-01  1.00000000e+00  3.34945995e-02  2.34726947e-01  8.13757318e-01
  1.00000000e+00
Coordinates of each shell                  R   N=         474
  2.35147847e-01 -1.12021867e+00 -1.67653619e+00  2.35147847e-01 -1.12021867e+00
 -1.67653619e+00  2.35147847e-01 -1.12021867e+00 -1.67653619e+00  2.35147847e-01
 -1.12021867e+00 -1.67653619e+00  2.35147847e-01 -1.12021867e+00 -1.67653619e+00
  2.35147847e-01 -1.12021867e+00 -1.67653619e+00  2.35147847e-01 -1.12021867e+00
 -1.67653619e+00  2.35147847e-01 -1.12021867e+00 -1.67653619e+00 -2.32117861e+00
 -4.83367209e-01 -6.24857478e-01 -2.32117861e+00 -4.83367209e-01 -6.24857478e-01
 -2.32117861e+00 -4.83367209e-01 -6.24857478e-01 -2.32117861e+00 -4.83367209e-01
 -6.24857478e-01 -2.32117861e+00 -4.83367209e-01 -6.24857478e-01 -2.32117861e+00
 -4.83367209e-01 -6.24857478e-01 -2.32117861e+00 -4.83367209e-01 -6.24857478e-01
 -2.32117861e+00 -4.83367209e-01 -6.24857478e-01 -2.63087274e+00  4.16806487e-01
  2.12354846e+00 -2.63087274e+00  4.16806487e-01  2.12354846e+00 -2.63087274e+00
  4.16806487e-01  2.12354846e+00 -2.63087274e+00  4.16806487e-01  2.12354846e+00
 -2.63087274e+00  4.16806487e-01  2.12354846e+00 -2.63087274e+00  4.16806487e-01
  2.12354846e+00 -2.63087274e+00  4.16806487e-01  2.12354846e+00 -2.63087274e+00
  4.16806487e-01  2.12354846e+00 -1.53663179e+00 -1.46973747e+00  3.83727824e+00
 -1.53663179e+00 -1.46973747e+00  3.83727824e+00 -1.53663179e+00 -1.46973747e+00
  3.83727824e+00 -1.53663179e+00 -1.46973747e+00  3.83727824e+00 -1.53663179e+00
 -1.46973747e+00  3.83727824e+00 -1.53663179e+00 -1.46973747e+00  3.83727824e+00
 -1.53663179e+00 -1.46973747e+00  3.83727824e+00 -1.53663179e+00 -1.46973747e+00
  3.83727824e+00  2.51772421e+00 -2.80434755e-01 -6.16148867e-01  2.51772421e+00
 -2.80434755e-01 -6.16148867e-01  2.51772421e+00 -2.80434755e-01 -6.16148867e-01
  2.51772421e+00 -2.80434755e-01 -6.16148867e-01  2.51772421e+00 -2.80434755e-01
 -6.16148867e-01  2.51772421e+00 -2.80434755e-01 -6.16148867e-01  2.51772421e+00
 -2.80434755e-01 -6.16148867e-01  2.51772421e+00 -2.80434755e-01 -6.16148867e-01
  4.82921766e+00 -9.08355571e-01 -1.72009674e+00  4.82921766e+00 -9.08355571e-01
 -1.72009674e+00  4.82921766e+00 -9.08355571e-01 -1.72009674e+00  4.82921766e+00
 -9.08355571e-01 -1.72009674e+00  4.82921766e+00 -9.08355571e-01 -1.72009674e+00
  4.82921766e+00 -9.08355571e-01 -1.72009674e+00  4.82921766e+00 -9.08355571e-01
 -1.72009674e+00  4.82921766e+00 -9.08355571e-01 -1.72009674e+00  4.94303042e+00
 -2.40856389e+00 -3.90054749e+00  4.94303042e+00 -2.40856389e+00 -3.90054749e+00
  4.94303042e+00 -2.40856389e+00 -3.90054749e+00  4.94303042e+00 -2.40856389e+00
 -3.90054749e+00  4.94303042e+00 -2.40856389e+00 -3.90054749e+00  4.94303042e+00
 -2.40856389e+00 -3.90054749e+00  4.94303042e+00 -2.40856389e+00 -3.90054749e+00
  4.94303042e+00 -2.40856389e+00 -3.90054749e+00  2.65543776e+00 -3.25195850e+00
 -4.95082030e+00  2.65543776e+00 -3.25195850e+00 -4.95082030e+00  2.65543776e+00
 -3.25195850e+00 -4.95082030e+00  2.65543776e+00 -3.25195850e+00 -4.95082030e+00
  2.65543776e+00 -3.25195850e+00 -4.95082030e+00  2.65543776e+00 -3.25195850e+00
 -4.95082030e+00  2.65543776e+00 -3.25195850e+00 -4.95082030e+00  2.65543776e+00
 -3.25195850e+00 -4.95082030e+00  3.44671304e-01 -2.60746792e+00 -3.87382038e+00
  3.44671304e-01 -2.60746792e+00 -3.87382038e+00  3.44671304e-01 -2.60746792e+00
 -3.87382038e+00  3.44671304e-01 -2.60746792e+00 -3.87382038e+00  3.44671304e-01
 -2.60746792e+00 -3.87382038e+00  3.44671304e-01 -2.60746792e+00 -3.87382038e+00
  3.44671304e-01 -2.60746792e+00 -3.87382038e+00  3.44671304e-01 -2.60746792e+00
 -3.87382038e+00  2.51917226e+00  9.16266452e-01  1.05068401e+00  2.51917226e+00
  9.16266452e-01  1.05068401e+00 -1.41609855e+00 -3.25264949e+00 -4.70568247e+00
 -1.41609855e+00 -3.25264949e+00 -4.70568247e+00  6.57133538e+00 -2.19340058e-01
 -8.72706244e-01  6.57133538e+00 -2.19340058e-01 -8.72706244e-01  7.44413048e+00
 -3.05279339e+00 -5.11587131e+00  7.44413048e+00 -3.05279339e+00 -5.11587131e+00
  7.44413048e+00 -3.05279339e+00 -5.11587131e+00  7.44413048e+00 -3.05279339e+00
 -5.11587131e+00  7.44413048e+00 -3.05279339e+00 -5.11587131e+00  7.44413048e+00
 -3.05279339e+00 -5.11587131e+00  7.44413048e+00 -3.05279339e+00 -5.11587131e+00
  7.44413048e+00 -3.05279339e+00 -5.11587131e+00  2.69198422e+00 -4.42985055e+00
 -6.63589248e+00  2.69198422e+00 -4.42985055e+00 -6.63589248e+00 -1.77055421e+00
  3.22501592e+00  2.48731784e+00 -1.77055421e+00  3.22501592e+00  2.48731784e+00
 -1.77055421e+00  3.22501592e+00  2.48731784e+00 -1.77055421e+00  3.22501592e+00
  2.48731784e+00 -1.77055421e+00  3.22501592e+00  2.48731784e+00 -1.77055421e+00
  3.22501592e+00  2.48731784e+00 -1.77055421e+00  3.22501592e+00  2.48731784e+00
 -1.77055421e+00  3.22501592e+00  2.48731784e+00 -4.67756682e+00  3.36015394e-01
  2.42609483e+00 -4.67756682e+00  3.36015394e-01  2.42609483e+00 -1.20654498e-01
  3.26597878e+00  3.75199752e+00 -1.20654498e-01  3.26597878e+00  3.75199752e+00
 -3.84917431e+00  4.94742630e+00  3.55790208e+00 -3.84917431e+00  4.94742630e+00
  3.55790208e+00 -3.84917431e+00  4.94742630e+00  3.55790208e+00 -3.84917431e+00
  4.94742630e+00  3.55790208e+00 -3.84917431e+00  4.94742630e+00  3.55790208e+00
 -3.84917431e+00  4.94742630e+00  3.55790208e+00 -3.84917431e+00  4.94742630e+00
  3.55790208e+00 -3.84917431e+00  4.94742630e+00  3.55790208e+00 -1.12868877e+00
  4.02083673e+00  6.79355482e-01 -1.12868877e+00  4.02083673e+00  6.79355482e-01
 -2.30615976e+00 -1.22398564e+00  6.47628245e+00 -2.30615976e+00 -1.22398564e+00
  6.47628245e+00 -2.30615976e+00 -1.22398564e+00  6.47628245e+00 -2.30615976e+00
 -1.22398564e+00  6.47628245e+00 -2.30615976e+00 -1.22398564e+00  6.47628245e+00
 -2.30615976e+00 -1.22398564e+00  6.47628245e+00 -2.30615976e+00 -1.22398564e+00
  6.47628245e+00 -2.30615976e+00 -1.22398564e+00  6.47628245e+00 -4.20165548e+00
 -6.86340567e-01 -1.95793823e+00 -4.20165548e+00 -6.86340567e-01 -1.95793823e+00
 -4.20165548e+00 -6.86340567e-01 -1.95793823e+00 -4.20165548e+00 -6.86340567e-01
 -1.95793823e+00 -4.20165548e+00 -6.86340567e-01 -1.95793823e+00 -4.20165548e+00
 -6.86340567e-01 -1.95793823e+00 -4.20165548e+00 -6.86340567e-01 -1.95793823e+00
 -4.20165548e+00 -6.86340567e-01 -1.95793823e+00  8.97810525e+00 -3.08689153e+00
 -3.72634839e+00  8.97810525e+00 -3.08689153e+00 -3.72634839e+00  7.94878515e+00
 -1.64993969e+00 -6.56086901e+00  7.94878515e+00 -1.64993969e+00 -6.56086901e+00
  7.37878701e+00 -4.89947562e+00 -6.04918011e+00  7.37878701e+00 -4.89947562e+00
 -6.04918011e+00 -1.80224079e+00  5.95797535e-01  7.36730921e+00 -1.80224079e+00
  5.95797535e-01  7.36730921e+00 -1.43029821e+00 -2.74325359e+00  7.57527773e+00
 -1.43029821e+00 -2.74325359e+00  7.57527773e+00 -4.36114956e+00 -1.45111806e+00
  6.60953812e+00 -4.36114956e+00 -1.45111806e+00  6.60953812e+00  3.79471347e-01
 -1.50586724e+00  3.70143772e+00  3.79471347e-01 -1.50586724e+00  3.70143772e+00
 -4.51661786e+00  4.18078426e+00  5.36869556e+00 -4.51661786e+00  4.18078426e+00
  5.36869556e+00 -5.48055027e+00  4.90455575e+00  2.27395988e+00 -5.48055027e+00
  4.90455575e+00  2.27395988e+00 -2.97458846e+00  7.68429006e+00  3.92410955e+00
 -2.97458846e+00  7.68429006e+00  3.92410955e+00 -2.97458846e+00  7.68429006e+00
  3.92410955e+00 -2.97458846e+00  7.68429006e+00  3.92410955e+00 -2.97458846e+00
  7.68429006e+00  3.92410955e+00 -2.97458846e+00  7.68429006e+00  3.92410955e+00
 -2.97458846e+00  7.68429006e+00  3.92410955e+00 -2.97458846e+00  7.68429006e+00
  3.92410955e+00 -1.37994490e+00  7.79480930e+00  5.24669059e+00 -1.37994490e+00
  7.79480930e+00  5.24669059e+00 -4.49962577e+00  8.86698747e+00  4.67867829e+00
 -4.49962577e+00  8.86698747e+00  4.67867829e+00 -2.35927726e+00  8.52065048e+00
  2.12857606e+00 -2.35927726e+00  8.52065048e+00  2.12857606e+00
Total Energy                               R     -6.368175343614732e+02
Alpha Orbital Energies                     R   N=         323
 -1.91441067e+01 -1.43329006e+01 -1.02786598e+01 -1.02241021e+01 -1.02187832e+01
 -1.02119652e+01 -1.02113122e+01 -1.02086247e+01 -1.02053996e+01 -1.02036058e+01
 -1.02026057e+01 -1.01981929e+01 -1.01943247e+01 -1.01909411e+01 -1.01822871e+01
 -1.04172344e+00 -9.13180045e-01 -8.72285708e-01 -7.99669519e-01 -7.91707318e-01
 -7.60303423e-01 -7.40466156e-01 -7.07299414e-01 -6.78766223e-01 -6.40911367e-01