Generated by Psi4
     FORCE                           RHF                       TESTBAS
Number of atoms                            I               27
Charge                                     I                0
Multiplicity                               I                1
Number of electrons                        I               98
Number of alpha electrons                  I               49
Number of beta electrons                   I               49
Number of basis functions                  I              262
Number of independent functions            I              262
Atomic numbers                             I   N=          27
           6           6           6           1           1           7
           6           6           6           6           6           1
           1           1           6           1           1           1
           1           1           1           1          16           6
           1           1           1
Nuclear charges                            R   N=          27
  6.00000000e+00  6.00000000e+00  6.00000000e+00  1.00000000e+00  1.00000000e+00
  7.00000000e+00  6.00000000e+00  6.00000000e+00  6.00000000e+00  6.00000000e+00
  6.00000000e+00  1.00000000e+00  1.00000000e+00  1.00000000e+00  6.00000000e+00
  1.00000000e+00  1.00000000e+00  1.00000000e+00  1.00000000e+00  1.00000000e+00
  1.00000000e+00  1.00000000e+00  1.60000000e+01  6.00000000e+00  1.00000000e+00
  1.00000000e+00  1.00000000e+00
Current cartesian coordinates              R   N=          81
 -9.49414277e-01 -1.38866046e+00  1.28854172e+00 -2.65246987e+00 -2.65462609e+00
  3.20615069e+00 -4.92473633e+00 -1.01755757e+00  4.11232759e+00 -1.54574380e+00
 -3.21658071e+00  4.87157746e+00 -3.42094198e+00 -4.40160319e+00  2.38629993e+00
 -6.72044705e+00 -2.42016086e+00  5.69793376e+00  1.41569332e+00 -4.05500832e-01
  1.96979655e+00  2.95842421e+00  8.02825541e-01  2.00851864e-01  2.17210097e+00
  1.04624579e+00 -2.31594448e+00 -1.93787992e-01  7.98186144e-02 -3.01681618e+00
 -1.72115980e+00 -1.12681708e+00 -1.23671308e+00  2.06229481e+00 -5.81629508e-01
  3.91381824e+00 -3.54308170e+00 -1.88015883e+00 -1.82396083e+00  4.77736726e+00
  1.56584278e+00  7.72022577e-01 -4.07496100e+00  1.34730140e+00  5.54293195e+00
 -5.97915681e+00 -4.14411315e-01  2.42825214e+00 -3.03136639e+00  8.29437334e-01
  7.26356101e+00 -5.72082749e+00  2.46595217e+00  6.10698375e+00 -2.83354467e+00
  2.52722443e+00  4.38302838e+00 -5.88149901e+00 -2.98506245e+00  7.33911451e+00
 -7.34257088e+00 -4.01075051e+00  4.80825401e+00 -8.31981599e-01  2.76428473e-01
 -4.95868993e+00  4.11968453e+00  2.65593945e+00 -4.58690821e+00  6.01601393e+00
  1.25931596e-02 -5.79904656e+00  7.13676450e+00 -8.50177513e-01 -4.29234202e+00
  7.29117037e+00  8.05983552e-01 -7.22062415e+00  4.81666383e+00 -1.41584977e+00
 -6.68882114e+00
Integer atomic weights                     I   N=          27
          12          12          12           1           1          14
          12          12          12          12          12           1
           1           1          12           1           1           1
           1           1           1           1          31          12
           1           1           1
Real atomic weights                        R   N=          27
  1.20000000e+01  1.20000000e+01  1.20000000e+01  1.00782503e+00  1.00782503e+00
  1.40030740e+01  1.20000000e+01  1.20000000e+01  1.20000000e+01  1.20000000e+01
  1.20000000e+01  1.00782503e+00  1.00782503e+00  1.00782503e+00  1.20000000e+01
  1.00782503e+00  1.00782503e+00  1.00782503e+00  1.00782503e+00  1.00782503e+00
  1.00782503e+00  1.00782503e+00  3.19720712e+01  1.20000000e+01  1.00782503e+00
  1.00782503e+00  1.00782503e+00
Number of primitive shells                 I              276
Number of contracted shells                I              128
Pure/Cartesian d shells                    I                1
Pure/Cartesian f shells                    I                1
Highest angular momentum                   I                2
Largest degree of contraction              I                6
Shell types                                I   N=         128
           0           0           1           0           1           2
           0           1           0           0           1           0
           1           2           0           1           0           0
           1           0           1           2           0           1
           0           0           0           0           0           0
           1           0           1           2           0           1
           0           0           1           0           1           2
           0           1           0           0           1           0
           1           2           0           1           0           0
           1           0           1           2           0           1
           0           0           1           0           1           2
           0           1           0           0           1           0
           1           2           0           1           0           0
           0           0           0           0           0           0
           1           0           1           2           0           1
           0           0           0           0           0           0
           0           0           0           0           0           0
           0           0           0           0           1           0
           1           0           1           2           0           1
           0           0           1           0           1           2
           0           1           0           0           0           0
           0           0
Number of primitives per shell             I   N=         128
           6           3           3           1           1           1
           1           1           6           3           3           1
           1           1           1           1           6           3
           3           1           1           1           1           1
           3           1           3           1           6           3
           3           1           1           1           1           1
           6           3           3           1           1           1
           1           1           6           3           3           1
           1           1           1           1           6           3
           3           1           1           1           1           1
           6           3           3           1           1           1
           1           1           6           3           3           1
           1           1           1           1           3           1
           3           1           3           1           6           3
           3           1           1           1           1           1
           3           1           3           1           3           1
           3           1           3           1           3           1
           3           1           6           6           6           3
           3           1           1           1           1           1
           6           3           3           1           1           1
           1           1           3           1           3           1
           3           1
Shell to atom map                          I   N=         128
           1           1           1           1           1           1
           1           1           2           2           2           2
           2           2           2           2           3           3
           3           3           3           3           3           3
           4           4           5           5           6           6
           6           6           6           6           6           6
           7           7           7           7           7           7
           7           7           8           8           8           8
           8           8           8           8           9           9
           9           9           9           9           9           9
          10          10          10          10          10          10
          10          10          11          11          11          11
          11          11          11          11          12          12
          13          13          14          14          15          15
          15          15          15          15          15          15
          16          16          17          17          18          18
          19          19          20          20          21          21
          22          22          23          23          23          23
          23          23          23          23          23          23
          24          24          24          24          24          24
          24          24          25          25          26          26
          27          27
Primitive exponents                        R   N=         276
  3.04752490e+03  4.57369510e+02  1.03948690e+02  2.92101550e+01  9.28666300e+00
  3.16392700e+00  7.86827240e+00  1.88128850e+00  5.44249300e-01  7.86827240e+00
  1.88128850e+00  5.44249300e-01  1.68714400e-01  1.68714400e-01  8.00000000e-01
  4.38000000e-02  4.38000000e-02  3.04752490e+03  4.57369510e+02  1.03948690e+02
  2.92101550e+01  9.28666300e+00  3.16392700e+00  7.86827240e+00  1.88128850e+00
  5.44249300e-01  7.86827240e+00  1.88128850e+00  5.44249300e-01  1.68714400e-01
  1.68714400e-01  8.00000000e-01  4.38000000e-02  4.38000000e-02  3.04752490e+03
  4.57369510e+02  1.03948690e+02  2.92101550e+01  9.28666300e+00  3.16392700e+00
  7.86827240e+00  1.88128850e+00  5.44249300e-01  7.86827240e+00  1.88128850e+00
  5.44249300e-01  1.68714400e-01  1.68714400e-01  8.00000000e-01  4.38000000e-02
  4.38000000e-02  1.87311370e+01  2.82539370e+00  6.40121700e-01  1.61277800e-01
  1.87311370e+01  2.82539370e+00  6.40121700e-01  1.61277800e-01  4.17351100e+03
  6.27457900e+02  1.42902100e+02  4.02343300e+01  1.28202100e+01  4.39043700e+00
  1.16263580e+01  2.71628000e+00  7.72218000e-01  1.16263580e+01  2.71628000e+00
  7.72218000e-01  2.12031300e-01  2.12031300e-01  8.00000000e-01  6.39000000e-02
  6.39000000e-02  3.04752490e+03  4.57369510e+02  1.03948690e+02  2.92101550e+01
  9.28666300e+00  3.16392700e+00  7.86827240e+00  1.88128850e+00  5.44249300e-01
  7.86827240e+00  1.88128850e+00  5.44249300e-01  1.68714400e-01  1.68714400e-01
  8.00000000e-01  4.38000000e-02  4.38000000e-02  3.04752490e+03  4.57369510e+02
  1.03948690e+02  2.92101550e+01  9.28666300e+00  3.16392700e+00  7.86827240e+00
  1.88128850e+00  5.44249300e-01  7.86827240e+00  1.88128850e+00  5.44249300e-01
  1.68714400e-01  1.68714400e-01  8.00000000e-01  4.38000000e-02  4.38000000e-02
  3.04752490e+03  4.57369510e+02  1.03948690e+02  2.92101550e+01  9.28666300e+00
  3.16392700e+00  7.86827240e+00  1.88128850e+00  5.44249300e-01  7.86827240e+00
  1.88128850e+00  5.44249300e-01  1.68714400e-01  1.68714400e-01  8.00000000e-01
  4.38000000e-02  4.38000000e-02  3.04752490e+03  4.57369510e+02  1.03948690e+02
  2.92101550e+01  9.28666300e+00  3.16392700e+00  7.86827240e+00  1.88128850e+00
  5.44249300e-01  7.86827240e+00  1.88128850e+00  5.44249300e-01  1.68714400e-01
  1.68714400e-01  8.00000000e-01  4.38000000e-02  4.38000000e-02  3.04752490e+03
  4.57369510e+02  1.03948690e+02  2.92101550e+01  9.28666300e+00  3.16392700e+00
  7.86827240e+00  1.88128850e+00  5.44249300e-01  7.86827240e+00  1.88128850e+00
  5.44249300e-01  1.68714400e-01  1.68714400e-01  8.00000000e-01  4.38000000e-02
  4.38000000e-02  1.87311370e+01  2.82539370e+00  6.40121700e-01  1.61277800e-01
  1.87311370e+01  2.82539370e+00  6.40121700e-01  1.61277800e-01  1.87311370e+01
  2.82539370e+00  6.40121700e-01  1.61277800e-01  3.04752490e+03  4.57369510e+02
  1.03948690e+02  2.92101550e+01  9.28666300e+00  3.16392700e+00  7.86827240e+00
  1.88128850e+00  5.44249300e-01  7.86827240e+00  1.88128850e+00  5.44249300e-01
  1.68714400e-01  1.68714400e-01  8.00000000e-01  4.38000000e-02  4.38000000e-02
  1.87311370e+01  2.82539370e+00  6.40121700e-01  1.61277800e-01  1.87311370e+01
  2.82539370e+00  6.40121700e-01  1.61277800e-01  1.87311370e+01  2.82539370e+00
  6.40121700e-01  1.61277800e-01  1.87311370e+01  2.82539370e+00  6.40121700e-01
  1.61277800e-01  1.87311370e+01  2.82539370e+00  6.40121700e-01  1.61277800e-01
  1.87311370e+01  2.82539370e+00  6.40121700e-01  1.61277800e-01  1.87311370e+01
  2.82539370e+00  6.40121700e-01  1.61277800e-01  2.19171000e+04  3.30149000e+03
  7.54146000e+02  2.12711000e+02  6.79896000e+01  2.30515000e+01  4.23735000e+02
  1.00710000e+02  3.21599000e+01  1.18079000e+01  4.63110000e+00  1.87025000e+00
  4.23735000e+02  1.00710000e+02  3.21599000e+01  1.18079000e+01  4.63110000e+00
  1.87025000e+00  2.61584000e+00  9.22167000e-01  3.41287000e-01  2.61584000e+00
  9.22167000e-01  3.41287000e-01  1.17167000e-01  1.17167000e-01  6.50000000e-01
  4.05000000e-02  4.05000000e-02  3.04752490e+03  4.57369510e+02  1.03948690e+02
  2.92101550e+01  9.28666300e+00  3.16392700e+00  7.86827240e+00  1.88128850e+00
  5.44249300e-01  7.86827240e+00  1.88128850e+00  5.44249300e-01  1.68714400e-01
  1.68714400e-01  8.00000000e-01  4.38000000e-02  4.38000000e-02  1.87311370e+01
  2.82539370e+00  6.40121700e-01  1.61277800e-01  1.87311370e+01  2.82539370e+00
  6.40121700e-01  1.61277800e-01  1.87311370e+01  2.82539370e+00  6.40121700e-01
  1.61277800e-01
Contraction coefficients                   R   N=         276
  1.83470016e-03  1.40373012e-02  6.88426061e-02  2.32184421e-01  4.67941342e-01
  3.62312032e-01 -1.19332409e-01 -1.60854212e-01  1.14345648e+00  6.89990956e-02
  3.16423980e-01  7.44308252e-01  1.00000000e+00  1.00000000e+00  1.00000000e+00
  1.00000000e+00  1.00000000e+00  1.83470016e-03  1.40373012e-02  6.88426061e-02
  2.32184421e-01  4.67941342e-01  3.62312032e-01 -1.19332409e-01 -1.60854212e-01
  1.14345648e+00  6.89990956e-02  3.16423980e-01  7.44308252e-01  1.00000000e+00
  1.00000000e+00  1.00000000e+00  1.00000000e+00  1.00000000e+00  1.83470016e-03
  1.40373012e-02  6.88426061e-02  2.32184421e-01  4.67941342e-01  3.62312032e-01
 -1.19332409e-01 -1.60854212e-01  1.14345648e+00  6.89990956e-02  3.16423980e-01
  7.44308252e-01  1.00000000e+00  1.00000000e+00  1.00000000e+00  1.00000000e+00
  1.00000000e+00  3.34945995e-02  2.34726947e-01  8.13757318e-01  1.00000000e+00
  3.34945995e-02  2.34726947e-01  8.13757318e-01  1.00000000e+00  1.83479944e-03
  1.39949958e-02  6.85869792e-02  2.32240930e-01  4.69069858e-01  3.60454891e-01
 -1.14961023e-01 -1.69118034e-01  1.14585223e+00  6.75800232e-02  3.23907111e-01
  7.40895255e-01  1.00000000e+00  1.00000000e+00  1.00000000e+00  1.00000000e+00
  1.00000000e+00  1.83470016e-03  1.40373012e-02  6.88426061e-02  2.32184421e-01
  4.67941342e-01  3.62312032e-01 -1.19332409e-01 -1.60854212e-01  1.14345648e+00
  6.89990956e-02  3.16423980e-01  7.44308252e-01  1.00000000e+00  1.00000000e+00
  1.00000000e+00  1.00000000e+00  1.00000000e+00  1.83470016e-03  1.40373012e-02
  6.88426061e-02  2.32184421e-01  4.67941342e-01  3.62312032e-01 -1.19332409e-01
 -1.60854212e-01  1.14345648e+00  6.89990956e-02  3.16423980e-01  7.44308252e-01
  1.00000000e+00  1.00000000e+00  1.00000000e+00  1.00000000e+00  1.00000000e+00
  1.83470016e-03  1.40373012e-02  6.88426061e-02  2.32184421e-01  4.67941342e-01
  3.62312032e-01 -1.19332409e-01 -1.60854212e-01  1.14345648e+00  6.89990956e-02
  3.16423980e-01  7.44308252e-01  1.00000000e+00  1.00000000e+00  1.00000000e+00
  1.00000000e+00  1.00000000e+00  1.83470016e-03  1.40373012e-02  6.88426061e-02
  2.32184421e-01  4.67941342e-01  3.62312032e-01 -1.19332409e-01 -1.60854212e-01
  1.14345648e+00  6.89990956e-02  3.16423980e-01  7.44308252e-01  1.00000000e+00
  1.00000000e+00  1.00000000e+00  1.00000000e+00  1.00000000e+00  1.83470016e-03
  1.40373012e-02  6.88426061e-02  2.32184421e-01  4.67941342e-01  3.62312032e-01
 -1.19332409e-01 -1.60854212e-01  1.14345648e+00  6.89990956e-02  3.16423980e-01
  7.44308252e-01  1.00000000e+00  1.00000000e+00  1.00000000e+00  1.00000000e+00
  1.00000000e+00  3.34945995e-02  2.34726947e-01  8.13757318e-01  1.00000000e+00
  3.34945995e-02  2.34726947e-01  8.13757318e-01  1.00000000e+00  3.34945995e-02
  2.34726947e-01  8.13757318e-01  1.00000000e+00  1.83470016e-03  1.40373012e-02
  6.88426061e-02  2.32184421e-01  4.67941342e-01  3.62312032e-01 -1.19332409e-01
 -1.60854212e-01  1.14345648e+00  6.89990956e-02  3.16423980e-01  7.44308252e-01
  1.00000000e+00  1.00000000e+00  1.00000000e+00  1.00000000e+00  1.00000000e+00
  3.34945995e-02  2.34726947e-01  8.13757318e-01  1.00000000e+00  3.34945995e-02
  2.34726947e-01  8.13757318e-01  1.00000000e+00  3.34945995e-02  2.34726947e-01
  8.13757318e-01  1.00000000e+00  3.34945995e-02  2.34726947e-01  8.13757318e-01
  1.00000000e+00  3.34945995e-02  2.34726947e-01  8.13757318e-01  1.00000000e+00
  3.34945995e-02  2.34726947e-01  8.13757318e-01  1.00000000e+00  3.34945995e-02
  2.34726947e-01  8.13757318e-01  1.00000000e+00  1.86900121e-03  1.42300092e-02
  6.96960451e-02  2.38487154e-01  4.83307312e-01  3.38074219e-01 -2.37670050e-03
 -3.16930066e-02 -1.13317024e-01  5.60900117e-02  5.92255123e-01  4.55006095e-01
  4.06100032e-03  3.06810024e-02  1.30452010e-01  3.27205026e-01  4.52851036e-01
  2.56042020e-01 -2.50373114e-01  6.69567631e-02  1.05450627e+00 -1.45109929e-02
  3.10262847e-01  7.54482628e-01  1.00000000e+00  1.00000000e+00  1.00000000e+00
  1.00000000e+00  1.00000000e+00  1.83470016e-03  1.40373012e-02  6.88426061e-02
  2.32184421e-01  4.67941342e-01  3.62312032e-01 -1.19332409e-01 -1.60854212e-01
  1.14345648e+00  6.89990956e-02  3.16423980e-01  7.44308252e-01  1.00000000e+00
  1.00000000e+00  1.00000000e+00  1.00000000e+00  1.00000000e+00  3.34945995e-02
  2.34726947e-01  8.13757318e-01  1.00000000e+00  3.34945995e-02  2.34726947e-01
  8.13757318e-01  1.00000000e+00  3.34945995e-02  2.34726947e-01  8.13757318e-01
  1.00000000e+00
Coordinates of each shell                  R   N=         384
 -9.49414277e-01 -1.38866046e+00  1.28854172e+00 -9.49414277e-01 -1.38866046e+00
  1.28854172e+00 -9.49414277e-01 -1.38866046e+00  1.28854172e+00 -9.49414277e-01
 -1.38866046e+00  1.28854172e+00 -9.49414277e-01 -1.38866046e+00  1.28854172e+00
 -9.49414277e-01 -1.38866046e+00  1.28854172e+00 -9.49414277e-01 -1.38866046e+00
  1.28854172e+00 -9.49414277e-01 -1.38866046e+00  1.28854172e+00 -2.65246987e+00
 -2.65462609e+00  3.20615069e+00 -2.65246987e+00 -2.65462609e+00  3.20615069e+00
 -2.65246987e+00 -2.65462609e+00  3.20615069e+00 -2.65246987e+00 -2.65462609e+00
  3.20615069e+00 -2.65246987e+00 -2.65462609e+00  3.20615069e+00 -2.65246987e+00
 -2.65462609e+00  3.20615069e+00 -2.65246987e+00 -2.65462609e+00  3.20615069e+00
 -2.65246987e+00 -2.65462609e+00  3.20615069e+00 -4.92473633e+00 -1.01755757e+00
  4.11232759e+00 -4.92473633e+00 -1.01755757e+00  4.11232759e+00 -4.92473633e+00
 -1.01755757e+00  4.11232759e+00 -4.92473633e+00 -1.01755757e+00  4.11232759e+00
 -4.92473633e+00 -1.01755757e+00  4.11232759e+00 -4.92473633e+00 -1.01755757e+00
  4.11232759e+00 -4.92473633e+00 -1.01755757e+00  4.11232759e+00 -4.92473633e+00
 -1.01755757e+00  4.11232759e+00 -1.54574380e+00 -3.21658071e+00  4.87157746e+00
 -1.54574380e+00 -3.21658071e+00  4.87157746e+00 -3.42094198e+00 -4.40160319e+00
  2.38629993e+00 -3.42094198e+00 -4.40160319e+00  2.38629993e+00 -6.72044705e+00
 -2.42016086e+00  5.69793376e+00 -6.72044705e+00 -2.42016086e+00  5.69793376e+00
 -6.72044705e+00 -2.42016086e+00  5.69793376e+00 -6.72044705e+00 -2.42016086e+00
  5.69793376e+00 -6.72044705e+00 -2.42016086e+00  5.69793376e+00 -6.72044705e+00
 -2.42016086e+00  5.69793376e+00 -6.72044705e+00 -2.42016086e+00  5.69793376e+00
 -6.72044705e+00 -2.42016086e+00  5.69793376e+00  1.41569332e+00 -4.05500832e-01
  1.96979655e+00  1.41569332e+00 -4.05500832e-01  1.96979655e+00  1.41569332e+00
 -4.05500832e-01  1.96979655e+00  1.41569332e+00 -4.05500832e-01  1.96979655e+00
  1.41569332e+00 -4.05500832e-01  1.96979655e+00  1.41569332e+00 -4.05500832e-01
  1.96979655e+00  1.41569332e+00 -4.05500832e-01  1.96979655e+00  1.41569332e+00
 -4.05500832e-01  1.96979655e+00  2.95842421e+00  8.02825541e-01  2.00851864e-01
  2.95842421e+00  8.02825541e-01  2.00851864e-01  2.95842421e+00  8.02825541e-01
  2.00851864e-01  2.95842421e+00  8.02825541e-01  2.00851864e-01  2.95842421e+00
  8.02825541e-01  2.00851864e-01  2.95842421e+00  8.02825541e-01  2.00851864e-01
  2.95842421e+00  8.02825541e-01  2.00851864e-01  2.95842421e+00  8.02825541e-01
  2.00851864e-01  2.17210097e+00  1.04624579e+00 -2.31594448e+00  2.17210097e+00
  1.04624579e+00 -2.31594448e+00  2.17210097e+00  1.04624579e+00 -2.31594448e+00
  2.17210097e+00  1.04624579e+00 -2.31594448e+00  2.17210097e+00  1.04624579e+00
 -2.31594448e+00  2.17210097e+00  1.04624579e+00 -2.31594448e+00  2.17210097e+00
  1.04624579e+00 -2.31594448e+00  2.17210097e+00  1.04624579e+00 -2.31594448e+00
 -1.93787992e-01  7.98186144e-02 -3.01681618e+00 -1.93787992e-01  7.98186144e-02
 -3.01681618e+00 -1.93787992e-01  7.98186144e-02 -3.01681618e+00 -1.93787992e-01
  7.98186144e-02 -3.01681618e+00 -1.93787992e-01  7.98186144e-02 -3.01681618e+00
 -1.93787992e-01  7.98186144e-02 -3.01681618e+00 -1.93787992e-01  7.98186144e-02
 -3.01681618e+00 -1.93787992e-01  7.98186144e-02 -3.01681618e+00 -1.72115980e+00
 -1.12681708e+00 -1.23671308e+00 -1.72115980e+00 -1.12681708e+00 -1.23671308e+00
 -1.72115980e+00 -1.12681708e+00 -1.23671308e+00 -1.72115980e+00 -1.12681708e+00
 -1.23671308e+00 -1.72115980e+00 -1.12681708e+00 -1.23671308e+00 -1.72115980e+00
 -1.12681708e+00 -1.23671308e+00 -1.72115980e+00 -1.12681708e+00 -1.23671308e+00
 -1.72115980e+00 -1.12681708e+00 -1.23671308e+00  2.06229481e+00 -5.81629508e-01
  3.91381824e+00  2.06229481e+00 -5.81629508e-01  3.91381824e+00 -3.54308170e+00
 -1.88015883e+00 -1.82396083e+00 -3.54308170e+00 -1.88015883e+00 -1.82396083e+00
  4.77736726e+00  1.56584278e+00  7.72022577e-01  4.77736726e+00  1.56584278e+00
  7.72022577e-01 -4.07496100e+00  1.34730140e+00  5.54293195e+00 -4.07496100e+00
  1.34730140e+00  5.54293195e+00 -4.07496100e+00  1.34730140e+00  5.54293195e+00
 -4.07496100e+00  1.34730140e+00  5.54293195e+00 -4.07496100e+00  1.34730140e+00
  5.54293195e+00 -4.07496100e+00  1.34730140e+00  5.54293195e+00 -4.07496100e+00
  1.34730140e+00  5.54293195e+00 -4.07496100e+00  1.34730140e+00  5.54293195e+00
 -5.97915681e+00 -4.14411315e-01  2.42825214e+00 -5.97915681e+00 -4.14411315e-01
  2.42825214e+00 -3.03136639e+00  8.29437334e-01  7.26356101e+00 -3.03136639e+00
  8.29437334e-01  7.26356101e+00 -5.72082749e+00  2.46595217e+00  6.10698375e+00
 -5.72082749e+00  2.46595217e+00  6.10698375e+00 -2.83354467e+00  2.52722443e+00
  4.38302838e+00 -2.83354467e+00  2.52722443e+00  4.38302838e+00 -5.88149901e+00
 -2.98506245e+00  7.33911451e+00 -5.88149901e+00 -2.98506245e+00  7.33911451e+00
 -7.34257088e+00 -4.01075051e+00  4.80825401e+00 -7.34257088e+00 -4.01075051e+00
  4.80825401e+00 -8.31981599e-01  2.76428473e-01 -4.95868993e+00 -8.31981599e-01
  2.76428473e-01 -4.95868993e+00  4.11968453e+00  2.65593945e+00 -4.58690821e+00
  4.11968453e+00  2.65593945e+00 -4.58690821e+00  4.11968453e+00  2.65593945e+00
 -4.58690821e+00  4.11968453e+00  2.65593945e+00 -4.58690821e+00  4.11968453e+00
  2.65593945e+00 -4.58690821e+00  4.11968453e+00  2.65593945e+00 -4.58690821e+00
  4.11968453e+00  2.65593945e+00 -4.58690821e+00  4.11968453e+00  2.65593945e+00
 -4.58690821e+00  4.11968453e+00  2.65593945e+00 -4.58690821e+00  4.11968453e+00
  2.65593945e+00 -4.58690821e+00  6.01601393e+00  1.25931596e-02 -5.79904656e+00
  6.01601393e+00  1.25931596e-02 -5.79904656e+00  6.01601393e+00  1.25931596e-02
 -5.79904656e+00  6.01601393e+00  1.25931596e-02 -5.79904656e+00  6.01601393e+00
  1.25931596e-02 -5.79904656e+00  6.01601393e+00  1.25931596e-02 -5.79904656e+00
  6.01601393e+00  1.25931596e-02 -5.79904656e+00  6.01601393e+00  1.25931596e-02
 -5.79904656e+00  7.13676450e+00 -8.50177513e-01 -4.29234202e+00  7.13676450e+00
 -8.50177513e-01 -4.29234202e+00  7.29117037e+00  8.05983552e-01 -7.22062415e+00
  7.29117037e+00  8.05983552e-01 -7.22062415e+00  4.81666383e+00 -1.41584977e+00
 -6.68882114e+00  4.81666383e+00 -1.41584977e+00 -6.68882114e+00
Total Energy                               R     -8.430557641780910e+02
Alpha Orbital Energies                     R   N=         262
 -8.88805566e+01 -1.43262431e+01 -1.02254798e+01 -1.02244295e+01 -1.02143186e+01
 -1.02106755e+01 -1.02045964e+01 -1.02043404e+01 -1.02017943e+01 -1.02015262e+01
 -1.01971938e+01 -1.01782916e+01 -7.93936711e+00 -5.90485168e+00 -5.90113541e+00
 -5.89391424e+00 -8.96197792e-01 -8.70902749e-01 -8.07266775e-01 -7.67451891e-01
 -7.56648376e-01 -7.33254170e-01 -6.93097900e-01 -6.41137413e-01 -6.19833082e-01
 -5.93638692e-01 -5.76469169e-01 -5.08097719e-01 -4.96378347e-01 -4.73906481e-01
 -4.65142055e-01 -4.60526226e-01 -4.38589029e-01 -4.31470568e-01 -4.29195508e-01
 -4.25561215e-01 -4.05866072e-01 -3.97390565e-01 -3.82817210e-01 -3.73292514e-01
 -3.63689501e-01 -3.55526493e-01 -3.45417420e-01 -3.40611013e-01 -3.22220674e-01
 -2.63765857e-01 -2.60111390e-01 -2.38409782e-01 -2.30685411e-01 -3.18223713e-02
 -2.09971956e-02 -4.80729459e-03  5.72069603e-03  1.06458446e-02  1.39221700e-02
  2.55183351e-02  3.17154921e-02  3.58756669e-02  3.83939481e-02  4.38816745e-02
  5.35661241e-02  5.63382776e-02  6.27852402e-02  6.83663190e-02  7.12413427e-02
  7.97232292e-02  8.40512809e-02  8.60547877e-02  8.91332001e-02  9.46468005e-02
  9.71854265e-02  1.08056948e-01  1.12069130e-01  1.17282000e-01  1.21004372e-01
  1.23294401e-01  1.29341231e-01  1.35539795e-01  1.39187105e-01  1.44405507e-01
  1.49801053e-01  1.56818543e-01  1.65739119e-01  1.69411386e-01  1.70720675e-01
  1.77589967e-01  1.81632269e-01  1.86590985e-01  1.89054574e-01  1.95031228e-01
  1.98167073e-01  2.03037216e-01  2.06309813e-01  2.09686813e-01  2.16316863e-01
  2.22731054e-01  2.27894889e-01  2.29367842e-01  2.34665181e-01  2.37960854e-01
  2.48282731e-01  2.52895833e-01  2.53748260e-01  2.61266953e-01  2.69522259e-01
  2.72355917e-01  2.77955491e-01  2.82769911e-01  2.85995095e-01  2.87529601e-01
  2.95418886e-01  2.99670135e-01  3.11765887e-01  3.12469945e-01  3.29304482e-01
  3.32392298e-01  3.35117383e-01  3.50230825e-01  3.51423005e-01  3.71143276e-01
  3.73739812e-01  3.79064726e-01  3.91518004e-01  4.44251599e-01  4.57389016e-01
  4.97297762e-01  5.27590555e-01  5.30287375e-01  5.99082886e-01  6.00692288e-01
  6.19828647e-01  6.23426585e-01  6.46583269e-01  6.55367218e-01  6.62771557e-01
  6.67878901e-01  6.81360023e-01  6.93347747e-01  6.98601728e-01  7.04245848e-01
  7.14020648e-01  7.32711030e-01  7.35868239e-01  7.51125921e-01  7.65191699e-01
  7.72565084e-01  7.79828473e-01  7.86654366e-01  7.93656795e-01  8.09903284e-01
  8.29156896e-01  8.55173586e-01  8.72841509e-01  8.84044513e-01  8.89620739e-01
  9.11983998e-01  9.24933491e-01  9.32289163e-01  9.42743850e-01  9.44632965e-01
  9.48181951e-01  9.73972687e-01  9.80862848e-01  9.86052288e-01  9.87233050e-01
  9.91311662e-01  9.99502754e-01  1.00678111e+00  1.01385418e+00  1.03191957e+00
  1.05787821e+00  1.05921524e+00  1.07687182e+00  1.08863179e+00  1.09807766e+00
  1.12052734e+00  1.13158300e+00  1.14592035e+00  1.15296778e+00  1.15968465e+00
  1.17987762e+00  1.19912654e+00  1.20768995e+00  1.22356511e+00  1.25163076e+00
  1.27005209e+00  1.28861055e+00  1.33546072e+00  1.36974596e+00  1.39428254e+00
  1.40806772e+00  1.44305462e+00  1.46533773e+00  1.47366553e+00  1.47642592e+00
  1.50359494e+00  1.52402434e+00  1.55625119e+00  1.56790932e+00  1.58518215e+00
  1.62987350e+00  1.70972132e+00  1.71872625e+00  1.73389367e+00  1.79714038e+00
  1.80817251e+00  1.83311529e+00  1.84955868e+00  1.85773522e+00  1.88758597e+00
  1.90942408e+00  1.96400118e+00  1.97658396e+00  1.99985430e+00  2.01788967e+00
  2.05230604e+00  2.07439313e+00  2.09907538e+00  2.09975023e+00  2.13845567e+00
  2.16112112e+00  2.17291987e+00  2.17733845e+00  2.18293446e+00  2.21127065e+00
  2.22236650e+00  2.25478383e+00  2.26062020e+00  2.27593011e+00  2.27984000e+00
  2.30466510e+00  2.32953057e+00  2.34492733e+00  2.41176170e+00  2.41963058e+00
  2.51224360e+00  2.57035770e+00  2.60057778e+00  2.60997421e+00  2.62773081e+00
  2.64867365e+00  2.72303775e+00  2.74594230e+00  2.75825676e+00  2.76873359e+00
  2.78593483e+00  2.83895373e+00  2.96655924e+00  3.06097928e+00  3.36813247e+00
  3.97318692e+00  3.98663654e+00  4.23401277e+00  4.24587982e+00  4.25375005e+00
  4.27710054e+00  4.34048913e+00  4.38690052e+00  4.39273177e+00  4.48844361e+00
  4.61204566e+00  4.71403231e+00
Alpha MO coefficients                      R   N=       68644
 -4.18555809e-07  3.62531586e-06 -1.24632623e-06  1.69336250e-07  1.30280785e-07
 -3.28821821e-05 -2.02637028e-05 -2.77488297e-05  3.18778146e-05 -4.77064093e-06
 -1.26383145e-06 -5.29722922e-06 -1.40679319e-06 -1.21399061e-06  3.38814654e-07
  1.93035138e-03 -2.74741044e-03 -1.75423030e-03  1.43927894e-03  1.15907940e-06
  4.22257343e-06 -3.96666897e-07 -2.32027760e-06  1.79357387e-06 -5.32108722e-05
 -1.68283465e-05  3.78027210e-06  2.82862547e-06  2.37680390e-06  2.04503524e-06
  1.24663246e-06 -3.06819205e-07 -1.16734741e-06 -4.98317700e-07 -3.02349163e-03
 -3.35820801e-04 -1.46321114e-04  4.89263594e-04  2.39095212e-07  1.04712510e-06
  1.02385852e-06 -1.56200681e-06 -6.21309956e-07 -8.26109618e-06 -1.65722898e-05
  1.01710623e-05  1.64501793e-05  1.88357214e-07  8.00880415e-07  1.53384100e-07
  1.18566405e-06  3.59343310e-07 -3.27676510e-07 -3.58607552e-04 -5.17973661e-05
 -1.92213700e-04 -1.05088234e-04  2.83385762e-06 -1.47351701e-05  5.05724836e-06
 -4.05560865e-05 -2.01460334e-07 -1.53327415e-07  7.52636063e-07 -5.96434730e-08
 -2.44850688e-07 -1.33478446e-06 -7.69061361e-06 -3.48577311e-06  2.61307586e-06
 -1.00128314e-06 -8.06617363e-07 -3.14585469e-07 -5.58834885e-07  1.81461256e-07