Generated by Psi4
     FORCE                           RHF                       TESTBAS
Number of atoms                            I               28
Charge                                     I                0
Multiplicity                               I                1
Number of electrons                        I               96
Number of alpha electrons                  I               48
Number of beta electrons                   I               48
Number of basis functions                  I              277
Number of independent functions            I              277
Atomic numbers                             I   N=          28
           6           6           6           1           1           7
           6           6           6           6           6           1
           6           1           1           1           1           1
           1           1           1           6           6           1
           1           8           1           1
Nuclear charges                            R   N=          28
  6.00000000e+00  6.00000000e+00  6.00000000e+00  1.00000000e+00  1.00000000e+00
  7.00000000e+00  6.00000000e+00  6.00000000e+00  6.00000000e+00  6.00000000e+00
  6.00000000e+00  1.00000000e+00  6.00000000e+00  1.00000000e+00  1.00000000e+00
  1.00000000e+00  1.00000000e+00  1.00000000e+00  1.00000000e+00  1.00000000e+00
  1.00000000e+00  6.00000000e+00  6.00000000e+00  1.00000000e+00  1.00000000e+00
  8.00000000e+00  1.00000000e+00  1.00000000e+00
Current cartesian coordinates              R   N=          84
 -4.12685747e-01 -1.58878208e+00  7.28699361e-01 -1.45579030e+00 -3.01988676e+00
  2.97887975e+00 -3.98577421e+00 -1.97750863e+00  4.05644850e+00 -5.38557799e-02
 -3.03877580e+00  4.51282841e+00 -1.76927219e+00 -5.00395714e+00  2.44696193e+00
 -5.10533609e+00 -3.61064885e+00  6.00594350e+00  1.62826255e+00  9.67214384e-02
  9.93678096e-01  2.53288640e+00  1.41061924e+00 -1.09478766e+00  1.40800901e+00
  1.05904344e+00 -3.45583466e+00 -6.12079055e-01 -5.85688876e-01 -3.80176525e+00
 -1.49344223e+00 -1.89556472e+00 -1.67801032e+00 -3.05566468e+00 -3.21292630e+00
 -1.91131990e+00 -3.70896609e+00  6.91639090e-01  5.13335543e+00 -5.35497601e+00
 -1.90781342e+00  2.49669226e+00 -1.45423031e+00 -8.50866640e-01 -5.65381001e+00
  2.49531688e+00  3.62072148e-01  2.84042994e+00 -2.37816538e+00  7.05389910e-01
  6.72955914e+00 -5.53612126e+00  1.37663132e+00  5.82018227e+00 -2.99631418e+00
  2.00798207e+00  3.70572546e+00 -3.95027870e+00 -3.71262890e+00  7.54646339e+00
 -5.32792699e+00 -5.41019078e+00  5.35628921e+00  4.58607069e+00  3.38173028e+00
 -1.38656420e+00  4.80173491e+00  3.55027737e+00 -4.29797981e+00  6.38495424e+00
  2.84531347e+00 -5.13863444e-01  4.00556630e+00  5.19503001e+00 -5.57859779e-01
  2.48380933e+00  2.49291981e+00 -5.32530107e+00  6.37904516e+00  2.40752301e+00
 -5.00937120e+00  4.97505152e+00  5.47378693e+00 -5.02456207e+00
Integer atomic weights                     I   N=          28
          12          12          12           1           1          14
          12          12          12          12          12           1
          12           1           1           1           1           1
           1           1           1          12          12           1
           1          15           1           1
Real atomic weights                        R   N=          28
  1.20000000e+01  1.20000000e+01  1.20000000e+01  1.00782503e+00  1.00782503e+00
  1.40030740e+01  1.20000000e+01  1.20000000e+01  1.20000000e+01  1.20000000e+01
  1.20000000e+01  1.00782503e+00  1.20000000e+01  1.00782503e+00  1.00782503e+00
  1.00782503e+00  1.00782503e+00  1.00782503e+00  1.00782503e+00  1.00782503e+00
  1.00782503e+00  1.20000000e+01  1.20000000e+01  1.00782503e+00  1.00782503e+00
  1.59949146e+01  1.00782503e+00  1.00782503e+00
Number of primitive shells                 I              281
Number of contracted shells                I              134
Pure/Cartesian d shells                    I                1
Pure/Cartesian f shells                    I                1
Highest angular momentum                   I                2
Largest degree of contraction              I                6
Shell types                                I   N=         134
           0           0           1           0           1           2
           0           1           0           0           1           0
           1           2           0           1           0           0
           1           0           1           2           0           1
           0           0           0           0           0           0
           1           0           1           2           0           1
           0           0           1           0           1           2
           0           1           0           0           1           0
           1           2           0           1           0           0
           1           0           1           2           0           1
           0           0           1           0           1           2
           0           1           0           0           1           0
           1           2           0           1           0           0
           0           0           1           0           1           2
           0           1           0           0           0           0
           0           0           0           0           0           0
           0           0           0           0           0           0
           0           0           1           0           1           2
           0           1           0           0           1           0
           1           2           0           1           0           0
           0           0           0           0           1           0
           1           2           0           1           0           0
           0           0
Number of primitives per shell             I   N=         134
           6           3           3           1           1           1
           1           1           6           3           3           1
           1           1           1           1           6           3
           3           1           1           1           1           1
           3           1           3           1           6           3
           3           1           1           1           1           1
           6           3           3           1           1           1
           1           1           6           3           3           1
           1           1           1           1           6           3
           3           1           1           1           1           1
           6           3           3           1           1           1
           1           1           6           3           3           1
           1           1           1           1           3           1
           6           3           3           1           1           1
           1           1           3           1           3           1
           3           1           3           1           3           1
           3           1           3           1           3           1
           6           3           3           1           1           1
           1           1           6           3           3           1
           1           1           1           1           3           1
           3           1           6           3           3           1
           1           1           1           1           3           1
           3           1
Shell to atom map                          I   N=         134
           1           1           1           1           1           1
           1           1           2           2           2           2
           2           2           2           2           3           3
           3           3           3           3           3           3
           4           4           5           5           6           6
           6           6           6           6           6           6
           7           7           7           7           7           7
           7           7           8           8           8           8
           8           8           8           8           9           9
           9           9           9           9           9           9
          10          10          10          10          10          10
          10          10          11          11          11          11
          11          11          11          11          12          12
          13          13          13          13          13          13
          13          13          14          14          15          15
          16          16          17          17          18          18
          19          19          20          20          21          21
          22          22          22          22          22          22
          22          22          23          23          23          23
          23          23          23          23          24          24
          25          25          26          26          26          26
          26          26          26          26          27          27
          28          28
Primitive exponents                        R   N=         281
  3.04752490e+03  4.57369510e+02  1.03948690e+02  2.92101550e+01  9.28666300e+00
  3.16392700e+00  7.86827240e+00  1.88128850e+00  5.44249300e-01  7.86827240e+00
  1.88128850e+00  5.44249300e-01  1.68714400e-01  1.68714400e-01  8.00000000e-01
  4.38000000e-02  4.38000000e-02  3.04752490e+03  4.57369510e+02  1.03948690e+02
  2.92101550e+01  9.28666300e+00  3.16392700e+00  7.86827240e+00  1.88128850e+00
  5.44249300e-01  7.86827240e+00  1.88128850e+00  5.44249300e-01  1.68714400e-01
  1.68714400e-01  8.00000000e-01  4.38000000e-02  4.38000000e-02  3.04752490e+03
  4.57369510e+02  1.03948690e+02  2.92101550e+01  9.28666300e+00  3.16392700e+00
  7.86827240e+00  1.88128850e+00  5.44249300e-01  7.86827240e+00  1.88128850e+00
  5.44249300e-01  1.68714400e-01  1.68714400e-01  8.00000000e-01  4.38000000e-02
  4.38000000e-02  1.87311370e+01  2.82539370e+00  6.40121700e-01  1.61277800e-01
  1.87311370e+01  2.82539370e+00  6.40121700e-01  1.61277800e-01  4.17351100e+03
  6.27457900e+02  1.42902100e+02  4.02343300e+01  1.28202100e+01  4.39043700e+00
  1.16263580e+01  2.71628000e+00  7.72218000e-01  1.16263580e+01  2.71628000e+00
  7.72218000e-01  2.12031300e-01  2.12031300e-01  8.00000000e-01  6.39000000e-02
  6.39000000e-02  3.04752490e+03  4.57369510e+02  1.03948690e+02  2.92101550e+01
  9.28666300e+00  3.16392700e+00  7.86827240e+00  1.88128850e+00  5.44249300e-01
  7.86827240e+00  1.88128850e+00  5.44249300e-01  1.68714400e-01  1.68714400e-01
  8.00000000e-01  4.38000000e-02  4.38000000e-02  3.04752490e+03  4.57369510e+02
  1.03948690e+02  2.92101550e+01  9.28666300e+00  3.16392700e+00  7.86827240e+00
  1.88128850e+00  5.44249300e-01  7.86827240e+00  1.88128850e+00  5.44249300e-01
  1.68714400e-01  1.68714400e-01  8.00000000e-01  4.38000000e-02  4.38000000e-02
  3.04752490e+03  4.57369510e+02  1.03948690e+02  2.92101550e+01  9.28666300e+00
  3.16392700e+00  7.86827240e+00  1.88128850e+00  5.44249300e-01  7.86827240e+00
  1.88128850e+00  5.44249300e-01  1.68714400e-01  1.68714400e-01  8.00000000e-01
  4.38000000e-02  4.38000000e-02  3.04752490e+03  4.57369510e+02  1.03948690e+02
  2.92101550e+01  9.28666300e+00  3.16392700e+00  7.86827240e+00  1.88128850e+00
  5.44249300e-01  7.86827240e+00  1.88128850e+00  5.44249300e-01  1.68714400e-01
  1.68714400e-01  8.00000000e-01  4.38000000e-02  4.38000000e-02  3.04752490e+03
  4.57369510e+02  1.03948690e+02  2.92101550e+01  9.28666300e+00  3.16392700e+00
  7.86827240e+00  1.88128850e+00  5.44249300e-01  7.86827240e+00  1.88128850e+00
  5.44249300e-01  1.68714400e-01  1.68714400e-01  8.00000000e-01  4.38000000e-02
  4.38000000e-02  1.87311370e+01  2.82539370e+00  6.40121700e-01  1.61277800e-01
  3.04752490e+03  4.57369510e+02  1.03948690e+02  2.92101550e+01  9.28666300e+00
  3.16392700e+00  7.86827240e+00  1.88128850e+00  5.44249300e-01  7.86827240e+00
  1.88128850e+00  5.44249300e-01  1.68714400e-01  1.68714400e-01  8.00000000e-01
  4.38000000e-02  4.38000000e-02  1.87311370e+01  2.82539370e+00  6.40121700e-01
  1.61277800e-01  1.87311370e+01  2.82539370e+00  6.40121700e-01  1.61277800e-01
  1.87311370e+01  2.82539370e+00  6.40121700e-01  1.61277800e-01  1.87311370e+01
  2.82539370e+00  6.40121700e-01  1.61277800e-01  1.87311370e+01  2.82539370e+00
  6.40121700e-01  1.61277800e-01  1.87311370e+01  2.82539370e+00  6.40121700e-01
  1.61277800e-01  1.87311370e+01  2.82539370e+00  6.40121700e-01  1.61277800e-01
  1.87311370e+01  2.82539370e+00  6.40121700e-01  1.61277800e-01  3.04752490e+03
  4.57369510e+02  1.03948690e+02  2.92101550e+01  9.28666300e+00  3.16392700e+00
  7.86827240e+00  1.88128850e+00  5.44249300e-01  7.86827240e+00  1.88128850e+00
  5.44249300e-01  1.68714400e-01  1.68714400e-01  8.00000000e-01  4.38000000e-02
  4.38000000e-02  3.04752490e+03  4.57369510e+02  1.03948690e+02  2.92101550e+01
  9.28666300e+00  3.16392700e+00  7.86827240e+00  1.88128850e+00  5.44249300e-01
  7.86827240e+00  1.88128850e+00  5.44249300e-01  1.68714400e-01  1.68714400e-01
  8.00000000e-01  4.38000000e-02  4.38000000e-02  1.87311370e+01  2.82539370e+00
  6.40121700e-01  1.61277800e-01  1.87311370e+01  2.82539370e+00  6.40121700e-01
  1.61277800e-01  5.48467170e+03  8.25234950e+02  1.88046960e+02  5.29645000e+01
  1.68975700e+01  5.79963530e+00  1.55396160e+01  3.59993360e+00  1.01376180e+00
  1.55396160e+01  3.59993360e+00  1.01376180e+00  2.70005800e-01  2.70005800e-01
  8.00000000e-01  8.45000000e-02  8.45000000e-02  1.87311370e+01  2.82539370e+00
  6.40121700e-01  1.61277800e-01  1.87311370e+01  2.82539370e+00  6.40121700e-01
  1.61277800e-01
Contraction coefficients                   R   N=         281
  1.83470016e-03  1.40373012e-02  6.88426061e-02  2.32184421e-01  4.67941342e-01
  3.62312032e-01 -1.19332409e-01 -1.60854212e-01  1.14345648e+00  6.89990956e-02
  3.16423980e-01  7.44308252e-01  1.00000000e+00  1.00000000e+00  1.00000000e+00
  1.00000000e+00  1.00000000e+00  1.83470016e-03  1.40373012e-02  6.88426061e-02
  2.32184421e-01  4.67941342e-01  3.62312032e-01 -1.19332409e-01 -1.60854212e-01
  1.14345648e+00  6.89990956e-02  3.16423980e-01  7.44308252e-01  1.00000000e+00
  1.00000000e+00  1.00000000e+00  1.00000000e+00  1.00000000e+00  1.83470016e-03
  1.40373012e-02  6.88426061e-02  2.32184421e-01  4.67941342e-01  3.62312032e-01
 -1.19332409e-01 -1.60854212e-01  1.14345648e+00  6.89990956e-02  3.16423980e-01
  7.44308252e-01  1.00000000e+00  1.00000000e+00  1.00000000e+00  1.00000000e+00
  1.00000000e+00  3.34945995e-02  2.34726947e-01  8.13757318e-01  1.00000000e+00
  3.34945995e-02  2.34726947e-01  8.13757318e-01  1.00000000e+00  1.83479944e-03
  1.39949958e-02  6.85869792e-02  2.32240930e-01  4.69069858e-01  3.60454891e-01
 -1.14961023e-01 -1.69118034e-01  1.14585223e+00  6.75800232e-02  3.23907111e-01
  7.40895255e-01  1.00000000e+00  1.00000000e+00  1.00000000e+00  1.00000000e+00
  1.00000000e+00  1.83470016e-03  1.40373012e-02  6.88426061e-02  2.32184421e-01
  4.67941342e-01  3.62312032e-01 -1.19332409e-01 -1.60854212e-01  1.14345648e+00
  6.89990956e-02  3.16423980e-01  7.44308252e-01  1.00000000e+00  1.00000000e+00
  1.00000000e+00  1.00000000e+00  1.00000000e+00  1.83470016e-03  1.40373012e-02
  6.88426061e-02  2.32184421e-01  4.67941342e-01  3.62312032e-01 -1.19332409e-01
 -1.60854212e-01  1.14345648e+00  6.89990956e-02  3.16423980e-01  7.44308252e-01
  1.00000000e+00  1.00000000e+00  1.00000000e+00  1.00000000e+00  1.00000000e+00
  1.83470016e-03  1.40373012e-02  6.88426061e-02  2.32184421e-01  4.67941342e-01
  3.62312032e-01 -1.19332409e-01 -1.60854212e-01  1.14345648e+00  6.89990956e-02
  3.16423980e-01  7.44308252e-01  1.00000000e+00  1.00000000e+00  1.00000000e+00
  1.00000000e+00  1.00000000e+00  1.83470016e-03  1.40373012e-02  6.88426061e-02
  2.32184421e-01  4.67941342e-01  3.62312032e-01 -1.19332409e-01 -1.60854212e-01
  1.14345648e+00  6.89990956e-02  3.16423980e-01  7.44308252e-01  1.00000000e+00
  1.00000000e+00  1.00000000e+00  1.00000000e+00  1.00000000e+00  1.83470016e-03
  1.40373012e-02  6.88426061e-02  2.32184421e-01  4.67941342e-01  3.62312032e-01
 -1.19332409e-01 -1.60854212e-01  1.14345648e+00  6.89990956e-02  3.16423980e-01
  7.44308252e-01  1.00000000e+00  1.00000000e+00  1.00000000e+00  1.00000000e+00
  1.00000000e+00  3.34945995e-02  2.34726947e-01  8.13757318e-01  1.00000000e+00
  1.83470016e-03  1.40373012e-02  6.88426061e-02  2.32184421e-01  4.67941342e-01
  3.62312032e-01 -1.19332409e-01 -1.60854212e-01  1.14345648e+00  6.89990956e-02
  3.16423980e-01  7.44308252e-01  1.00000000e+00  1.00000000e+00  1.00000000e+00
  1.00000000e+00  1.00000000e+00  3.34945995e-02  2.34726947e-01  8.13757318e-01
  1.00000000e+00  3.34945995e-02  2.34726947e-01  8.13757318e-01  1.00000000e+00
  3.34945995e-02  2.34726947e-01  8.13757318e-01  1.00000000e+00  3.34945995e-02
  2.34726947e-01  8.13757318e-01  1.00000000e+00  3.34945995e-02  2.34726947e-01
  8.13757318e-01  1.00000000e+00  3.34945995e-02  2.34726947e-01  8.13757318e-01
  1.00000000e+00  3.34945995e-02  2.34726947e-01  8.13757318e-01  1.00000000e+00
  3.34945995e-02  2.34726947e-01  8.13757318e-01  1.00000000e+00  1.83470016e-03
  1.40373012e-02  6.88426061e-02  2.32184421e-01  4.67941342e-01  3.62312032e-01
 -1.19332409e-01 -1.60854212e-01  1.14345648e+00  6.89990956e-02  3.16423980e-01
  7.44308252e-01  1.00000000e+00  1.00000000e+00  1.00000000e+00  1.00000000e+00
  1.00000000e+00  1.83470016e-03  1.40373012e-02  6.88426061e-02  2.32184421e-01
  4.67941342e-01  3.62312032e-01 -1.19332409e-01 -1.60854212e-01  1.14345648e+00
  6.89990956e-02  3.16423980e-01  7.44308252e-01  1.00000000e+00  1.00000000e+00
  1.00000000e+00  1.00000000e+00  1.00000000e+00  3.34945995e-02  2.34726947e-01
  8.13757318e-01  1.00000000e+00  3.34945995e-02  2.34726947e-01  8.13757318e-01
  1.00000000e+00  1.83109981e-03  1.39500985e-02  6.84450927e-02  2.32714275e-01
  4.70192950e-01  3.58520862e-01 -1.10777504e-01 -1.48026305e-01  1.13076704e+00
  7.08742995e-02  3.39752798e-01  7.27158595e-01  1.00000000e+00  1.00000000e+00
  1.00000000e+00  1.00000000e+00  1.00000000e+00  3.34945995e-02  2.34726947e-01
  8.13757318e-01  1.00000000e+00  3.34945995e-02  2.34726947e-01  8.13757318e-01
  1.00000000e+00
Coordinates of each shell                  R   N=         402
 -4.12685747e-01 -1.58878208e+00  7.28699361e-01 -4.12685747e-01 -1.58878208e+00
  7.28699361e-01 -4.12685747e-01 -1.58878208e+00  7.28699361e-01 -4.12685747e-01
 -1.58878208e+00  7.28699361e-01 -4.12685747e-01 -1.58878208e+00  7.28699361e-01
 -4.12685747e-01 -1.58878208e+00  7.28699361e-01 -4.12685747e-01 -1.58878208e+00
  7.28699361e-01 -4.12685747e-01 -1.58878208e+00  7.28699361e-01 -1.45579030e+00
 -3.01988676e+00  2.97887975e+00 -1.45579030e+00 -3.01988676e+00  2.97887975e+00
 -1.45579030e+00 -3.01988676e+00  2.97887975e+00 -1.45579030e+00 -3.01988676e+00
  2.97887975e+00 -1.45579030e+00 -3.01988676e+00  2.97887975e+00 -1.45579030e+00
 -3.01988676e+00  2.97887975e+00 -1.45579030e+00 -3.01988676e+00  2.97887975e+00
 -1.45579030e+00 -3.01988676e+00  2.97887975e+00 -3.98577421e+00 -1.97750863e+00
  4.05644850e+00 -3.98577421e+00 -1.97750863e+00  4.05644850e+00 -3.98577421e+00
 -1.97750863e+00  4.05644850e+00 -3.98577421e+00 -1.97750863e+00  4.05644850e+00
 -3.98577421e+00 -1.97750863e+00  4.05644850e+00 -3.98577421e+00 -1.97750863e+00
  4.05644850e+00 -3.98577421e+00 -1.97750863e+00  4.05644850e+00 -3.98577421e+00
 -1.97750863e+00  4.05644850e+00 -5.38557799e-02 -3.03877580e+00  4.51282841e+00
 -5.38557799e-02 -3.03877580e+00  4.51282841e+00 -1.76927219e+00 -5.00395714e+00
  2.44696193e+00 -1.76927219e+00 -5.00395714e+00  2.44696193e+00 -5.10533609e+00
 -3.61064885e+00  6.00594350e+00 -5.10533609e+00 -3.61064885e+00  6.00594350e+00
 -5.10533609e+00 -3.61064885e+00  6.00594350e+00 -5.10533609e+00 -3.61064885e+00
  6.00594350e+00 -5.10533609e+00 -3.61064885e+00  6.00594350e+00 -5.10533609e+00
 -3.61064885e+00  6.00594350e+00 -5.10533609e+00 -3.61064885e+00  6.00594350e+00
 -5.10533609e+00 -3.61064885e+00  6.00594350e+00  1.62826255e+00  9.67214384e-02
  9.93678096e-01  1.62826255e+00  9.67214384e-02  9.93678096e-01  1.62826255e+00
  9.67214384e-02  9.93678096e-01  1.62826255e+00  9.67214384e-02  9.93678096e-01
  1.62826255e+00  9.67214384e-02  9.93678096e-01  1.62826255e+00  9.67214384e-02
  9.93678096e-01  1.62826255e+00  9.67214384e-02  9.93678096e-01  1.62826255e+00
  9.67214384e-02  9.93678096e-01  2.53288640e+00  1.41061924e+00 -1.09478766e+00
  2.53288640e+00  1.41061924e+00 -1.09478766e+00  2.53288640e+00  1.41061924e+00
 -1.09478766e+00  2.53288640e+00  1.41061924e+00 -1.09478766e+00  2.53288640e+00
  1.41061924e+00 -1.09478766e+00  2.53288640e+00  1.41061924e+00 -1.09478766e+00
  2.53288640e+00  1.41061924e+00 -1.09478766e+00  2.53288640e+00  1.41061924e+00
 -1.09478766e+00  1.40800901e+00  1.05904344e+00 -3.45583466e+00  1.40800901e+00
  1.05904344e+00 -3.45583466e+00  1.40800901e+00  1.05904344e+00 -3.45583466e+00
  1.40800901e+00  1.05904344e+00 -3.45583466e+00  1.40800901e+00  1.05904344e+00
 -3.45583466e+00  1.40800901e+00  1.05904344e+00 -3.45583466e+00  1.40800901e+00
  1.05904344e+00 -3.45583466e+00  1.40800901e+00  1.05904344e+00 -3.45583466e+00
 -6.12079055e-01 -5.85688876e-01 -3.80176525e+00 -6.12079055e-01 -5.85688876e-01
 -3.80176525e+00 -6.12079055e-01 -5.85688876e-01 -3.80176525e+00 -6.12079055e-01
 -5.85688876e-01 -3.80176525e+00 -6.12079055e-01 -5.85688876e-01 -3.80176525e+00
 -6.12079055e-01 -5.85688876e-01 -3.80176525e+00 -6.12079055e-01 -5.85688876e-01
 -3.80176525e+00 -6.12079055e-01 -5.85688876e-01 -3.80176525e+00 -1.49344223e+00
 -1.89556472e+00 -1.67801032e+00 -1.49344223e+00 -1.89556472e+00 -1.67801032e+00
 -1.49344223e+00 -1.89556472e+00 -1.67801032e+00 -1.49344223e+00 -1.89556472e+00
 -1.67801032e+00 -1.49344223e+00 -1.89556472e+00 -1.67801032e+00 -1.49344223e+00
 -1.89556472e+00 -1.67801032e+00 -1.49344223e+00 -1.89556472e+00 -1.67801032e+00
 -1.49344223e+00 -1.89556472e+00 -1.67801032e+00 -3.05566468e+00 -3.21292630e+00
 -1.91131990e+00 -3.05566468e+00 -3.21292630e+00 -1.91131990e+00 -3.70896609e+00
  6.91639090e-01  5.13335543e+00 -3.70896609e+00  6.91639090e-01  5.13335543e+00
 -3.70896609e+00  6.91639090e-01  5.13335543e+00 -3.70896609e+00  6.91639090e-01
  5.13335543e+00 -3.70896609e+00  6.91639090e-01  5.13335543e+00 -3.70896609e+00
  6.91639090e-01  5.13335543e+00 -3.70896609e+00  6.91639090e-01  5.13335543e+00
 -3.70896609e+00  6.91639090e-01  5.13335543e+00 -5.35497601e+00 -1.90781342e+00
  2.49669226e+00 -5.35497601e+00 -1.90781342e+00  2.49669226e+00 -1.45423031e+00
 -8.50866640e-01 -5.65381001e+00 -1.45423031e+00 -8.50866640e-01 -5.65381001e+00
  2.49531688e+00  3.62072148e-01  2.84042994e+00  2.49531688e+00  3.62072148e-01
  2.84042994e+00 -2.37816538e+00  7.05389910e-01  6.72955914e+00 -2.37816538e+00
  7.05389910e-01  6.72955914e+00 -5.53612126e+00  1.37663132e+00  5.82018227e+00
 -5.53612126e+00  1.37663132e+00  5.82018227e+00 -2.99631418e+00  2.00798207e+00
  3.70572546e+00 -2.99631418e+00  2.00798207e+00  3.70572546e+00 -3.95027870e+00
 -3.71262890e+00  7.54646339e+00 -3.95027870e+00 -3.71262890e+00  7.54646339e+00
 -5.32792699e+00 -5.41019078e+00  5.35628921e+00 -5.32792699e+00 -5.41019078e+00
  5.35628921e+00  4.58607069e+00  3.38173028e+00 -1.38656420e+00  4.58607069e+00
  3.38173028e+00 -1.38656420e+00  4.58607069e+00  3.38173028e+00 -1.38656420e+00
  4.58607069e+00  3.38173028e+00 -1.38656420e+00  4.58607069e+00  3.38173028e+00
 -1.38656420e+00  4.58607069e+00  3.38173028e+00 -1.38656420e+00  4.58607069e+00
  3.38173028e+00 -1.38656420e+00  4.58607069e+00  3.38173028e+00 -1.38656420e+00
  4.80173491e+00  3.55027737e+00 -4.29797981e+00  4.80173491e+00  3.55027737e+00
 -4.29797981e+00  4.80173491e+00  3.55027737e+00 -4.29797981e+00  4.80173491e+00
  3.55027737e+00 -4.29797981e+00  4.80173491e+00  3.55027737e+00 -4.29797981e+00
  4.80173491e+00  3.55027737e+00 -4.29797981e+00  4.80173491e+00  3.55027737e+00
 -4.29797981e+00  4.80173491e+00  3.55027737e+00 -4.29797981e+00  6.38495424e+00
  2.84531347e+00 -5.13863444e-01  6.38495424e+00  2.84531347e+00 -5.13863444e-01
  4.00556630e+00  5.19503001e+00 -5.57859779e-01  4.00556630e+00  5.19503001e+00
 -5.57859779e-01  2.48380933e+00  2.49291981e+00 -5.32530107e+00  2.48380933e+00
  2.49291981e+00 -5.32530107e+00  2.48380933e+00  2.49291981e+00 -5.32530107e+00
  2.48380933e+00  2.49291981e+00 -5.32530107e+00  2.48380933e+00  2.49291981e+00
 -5.32530107e+00  2.48380933e+00  2.49291981e+00 -5.32530107e+00  2.48380933e+00
  2.49291981e+00 -5.32530107e+00  2.48380933e+00  2.49291981e+00 -5.32530107e+00
  6.37904516e+00  2.40752301e+00 -5.00937120e+00  6.37904516e+00  2.40752301e+00
 -5.00937120e+00  4.97505152e+00  5.47378693e+00 -5.02456207e+00  4.97505152e+00
  5.47378693e+00 -5.02456207e+00
Total Energy                               R     -5.581928677594857e+02
Alpha Orbital Energies                     R   N=         277
 -1.91821463e+01 -1.43212332e+01 -1.02507442e+01 -1.02443399e+01 -1.02186948e+01
 -1.02082330e+01 -1.01985852e+01 -1.01968043e+01 -1.01962979e+01 -1.01949773e+01
 -1.01934094e+01 -1.01895963e+01 -1.01739666e+01 -1.07049740e+00 -8.90341509e-01
 -8.58475189e-01 -7.98076100e-01 -7.77671661e-01 -7.33665158e-01 -7.30808892e-01
 -6.86424216e-01 -6.33497369e-01 -6.08777460e-01 -5.95562138e-01 -5.67896870e-01
 -5.11929543e-01 -5.04345759e-01 -4.97117958e-01 -4.87464621e-01 -4.66271982e-01
 -4.55539077e-01 -4.38269074e-01 -4.21747235e-01 -4.20475401e-01 -4.06089508e-01
 -4.03078938e-01 -3.86177346e-01 -3.79532359e-01 -3.73322649e-01 -3.63026046e-01
 -3.58291256e-01 -3.49397324e-01 -3.39176853e-01 -3.31543583e-01 -3.11458160e-01
 -2.54125569e-01 -2.43268182e-01 -2.12489682e-01 -1.84343578e-02 -5.88453874e-03
  3.36406345e-03  8.96351302e-03  1.59150789e-02  2.06220407e-02  2.96478850e-02
  3.12194932e-02  4.12037806e-02  4.29139637e-02  4.65238295e-02  5.17880125e-02
  5.82529003e-02  6.92226569e-02  7.31161721e-02  7.95860284e-02  8.34398443e-02
  8.88741219e-02  9.48909332e-02  1.03372756e-01  1.05252323e-01  1.09444389e-01
  1.18062754e-01  1.21533646e-01  1.27002020e-01  1.32693402e-01  1.33555601e-01
  1.39234908e-01  1.47616981e-01  1.51071475e-01  1.52168689e-01  1.62912503e-01
  1.67611510e-01  1.72497937e-01  1.77423981e-01  1.77941080e-01  1.84418511e-01
  1.86579141e-01  1.95190813e-01  2.01255940e-01  2.03377189e-01  2.04004951e-01
  2.08933186e-01  2.14510059e-01  2.15477787e-01  2.20286850e-01  2.25280919e-01
  2.33247658e-01  2.35442096e-01  2.40437279e-01  2.43582980e-01  2.45562476e-01
  2.56169418e-01  2.57843364e-01  2.65248481e-01  2.71037242e-01  2.78789449e-01
  2.82121356e-01  2.84514438e-01  2.91324312e-01  2.97520104e-01  3.02971406e-01
  3.06616155e-01  3.08921928e-01  3.16304476e-01  3.17059041e-01  3.21471020e-01
  3.30228676e-01  3.34372551e-01  3.40562899e-01  3.54853019e-01  3.63262461e-01
  3.68602884e-01  3.76861134e-01  3.88274854e-01  3.89917175e-01  4.02293905e-01
  4.15435050e-01  4.18463012e-01  4.44741846e-01  4.66204048e-01  4.78630524e-01
  5.75630595e-01  6.08585611e-01  6.45519965e-01  6.54690131e-01  6.69111290e-01
  6.70328365e-01  6.78706136e-01  6.87192299e-01  6.98551697e-01  7.07344120e-01
  7.15577676e-01  7.23944807e-01  7.34221065e-01  7.44799896e-01  7.58625923e-01
  7.64238590e-01  7.74299766e-01  7.78122673e-01  7.82223095e-01  7.89637959e-01
  7.95610267e-01  8.10143893e-01  8.18167530e-01  8.45047722e-01  8.75185065e-01
  8.92743656e-01  9.03624046e-01  9.15967847e-01  9.30699594e-01  9.43067719e-01
  9.57115879e-01  9.64435639e-01  9.70015826e-01  9.88620144e-01  9.89179880e-01
  1.00645341e+00  1.01810680e+00  1.03157826e+00  1.03783978e+00  1.06095513e+00
  1.06668222e+00  1.07337925e+00  1.09023963e+00  1.10948945e+00  1.12871092e+00
  1.14109659e+00  1.15058489e+00  1.16779540e+00  1.17117023e+00  1.17947084e+00
  1.19172079e+00  1.20196686e+00  1.22141775e+00  1.23884091e+00  1.25555385e+00
  1.25796960e+00  1.27143789e+00  1.29754390e+00  1.30108615e+00  1.32355655e+00
  1.37163733e+00  1.39495892e+00  1.41016839e+00  1.43160250e+00  1.43902962e+00
  1.45172593e+00  1.48729549e+00  1.49885314e+00  1.51060225e+00  1.53994143e+00
  1.57370461e+00  1.59950196e+00  1.62684473e+00  1.68618872e+00  1.72727569e+00
  1.74262581e+00  1.77435768e+00  1.79416988e+00  1.81244701e+00  1.82722460e+00
  1.83989390e+00  1.85261780e+00  1.85639588e+00  1.88479926e+00  1.89382711e+00
  1.92941867e+00  1.93582512e+00  1.95970787e+00  1.97574809e+00  1.98300894e+00
  1.99996426e+00  2.00514076e+00  2.03800684e+00  2.05635993e+00  2.08087002e+00
  2.09060517e+00  2.11224732e+00  2.12480761e+00  2.13117156e+00  2.17571128e+00
  2.20269472e+00  2.20903975e+00  2.22108346e+00  2.22707143e+00  2.24517359e+00
  2.29440526e+00  2.30198607e+00  2.32869336e+00  2.33826389e+00  2.34662306e+00
  2.36670713e+00  2.42339443e+00  2.43445737e+00  2.48432233e+00  2.50686605e+00
  2.52296470e+00  2.53452944e+00  2.58388797e+00  2.61179654e+00  2.61437885e+00
  2.64611926e+00  2.67809141e+00  2.70640384e+00  2.75537777e+00  2.76310581e+00
  2.81144218e+00  2.83811104e+00  2.85245243e+00  2.90220998e+00  2.94704174e+00
  3.01694970e+00  3.07108094e+00  3.20045762e+00  3.44427632e+00  3.99149429e+00
  4.24250386e+00  4.24947440e+00  4.28817579e+00  4.30691518e+00  4.34724729e+00
  4.38433528e+00  4.41326965e+00  4.49507462e+00  4.57887626e+00  4.59728085e+00
  4.62010120e+00  4.83125952e+00
Alpha MO coefficients                      R   N=       76729
 -2.62459276e-06 -1.60978611e-05  3.84893439e-06  3.24166205e-06 -8.40487235e-06
  4.45189408e-04 -2.34256651e-04 -1.13221090e-04 -3.11587841e-04 -7.75641020e-06