Generated by Psi4
     FORCE                           RHF                       TESTBAS
Number of atoms                            I               26
Charge                                     I                0
Multiplicity                               I                1
Number of electrons                        I               94
Number of alpha electrons                  I               47
Number of beta electrons                   I               47
Number of basis functions                  I              273
Number of independent functions            I              273
Atomic numbers                             I   N=          26
           6           6           6           6           6           6
           1           1           6           6           8           1
           1           1           6           6           1           1
           6           1           1           1           7           1
           1           1
Nuclear charges                            R   N=          26
  6.00000000e+00  6.00000000e+00  6.00000000e+00  6.00000000e+00  6.00000000e+00
  6.00000000e+00  1.00000000e+00  1.00000000e+00  6.00000000e+00  6.00000000e+00
  8.00000000e+00  1.00000000e+00  1.00000000e+00  1.00000000e+00  6.00000000e+00
  6.00000000e+00  1.00000000e+00  1.00000000e+00  6.00000000e+00  1.00000000e+00
  1.00000000e+00  1.00000000e+00  7.00000000e+00  1.00000000e+00  1.00000000e+00
  1.00000000e+00
Current cartesian coordinates              R   N=          78
 -7.66910993e-01  1.04795200e+00  1.10821557e+00  1.79450925e+00  1.35249603e+00
  1.82197963e+00  3.78126706e+00  1.04370126e+00  1.18291248e-01  3.12325626e+00
  4.20385229e-01 -2.34715098e+00  6.10602820e-01  1.09749384e-01 -3.15304488e+00
 -1.35014687e+00  4.31646448e-01 -1.39272894e+00  5.73964795e+00  1.28908646e+00
  6.78186494e-01 -3.31092598e+00  2.09597292e-01 -1.96746694e+00  7.73618651e-01
 -5.01753576e-01 -5.80966568e+00  3.27479979e+00 -5.18655022e-01 -6.38269941e+00
  4.75771228e+00  3.94122895e-02 -4.32411172e+00  2.22829959e+00  1.85980516e+00
  3.76624885e+00 -7.64085717e-01 -8.78352527e-01 -7.10306511e+00  4.29850658e+00
 -8.76392264e-01 -8.11197773e+00 -2.83660669e+00  1.37952215e+00  3.05852689e+00
 -3.09779327e+00 -8.35601860e-01  4.94654463e+00 -4.66964726e+00  1.64729581e+00
  2.12897957e+00 -2.47306420e+00  3.11074603e+00  4.14992834e+00 -3.94355127e+00
 -3.28723316e+00  3.66926208e+00 -5.80522800e+00 -3.03897555e+00  2.79252601e+00
 -4.08870331e+00 -4.82505051e+00  5.05426314e+00 -2.59420308e+00 -3.87483500e+00
  2.21520966e+00 -4.99515438e+00 -1.16675896e-01  6.85167913e+00 -1.21980598e+00
 -1.16794195e+00  5.79733916e+00 -4.42322561e+00  1.43151116e+00  7.84472854e+00
 -5.25102692e+00 -1.53753126e+00  8.12544221e+00
Integer atomic weights                     I   N=          26
          12          12          12          12          12          12
           1           1          12          12          15           1
           1           1          12          12           1           1
          12           1           1           1          14           1
           1           1
Real atomic weights                        R   N=          26
  1.20000000e+01  1.20000000e+01  1.20000000e+01  1.20000000e+01  1.20000000e+01
  1.20000000e+01  1.00782503e+00  1.00782503e+00  1.20000000e+01  1.20000000e+01
  1.59949146e+01  1.00782503e+00  1.00782503e+00  1.00782503e+00  1.20000000e+01
  1.20000000e+01  1.00782503e+00  1.00782503e+00  1.20000000e+01  1.00782503e+00
  1.00782503e+00  1.00782503e+00  1.40030740e+01  1.00782503e+00  1.00782503e+00
  1.00782503e+00
Number of primitive shells                 I              273
Number of contracted shells                I              130
Pure/Cartesian d shells                    I                1
Pure/Cartesian f shells                    I                1
Highest angular momentum                   I                2
Largest degree of contraction              I                6
Shell types                                I   N=         130
           0           0           1           0           1           2
           0           1           0           0           1           0
           1           2           0           1           0           0
           1           0           1           2           0           1
           0           0           1           0           1           2
           0           1           0           0           1           0
           1           2           0           1           0           0
           1           0           1           2           0           1
           0           0           0           0           0           0
           1           0           1           2           0           1
           0           0           1           0           1           2
           0           1           0           0           1           0
           1           2           0           1           0           0
           0           0           0           0           0           0
           1           0           1           2           0           1
           0           0           1           0           1           2
           0           1           0           0           0           0
           0           0           1           0           1           2
           0           1           0           0           0           0
           0           0           0           0           1           0
           1           2           0           1           0           0
           0           0           0           0
Number of primitives per shell             I   N=         130
           6           3           3           1           1           1
           1           1           6           3           3           1
           1           1           1           1           6           3
           3           1           1           1           1           1
           6           3           3           1           1           1
           1           1           6           3           3           1
           1           1           1           1           6           3
           3           1           1           1           1           1
           3           1           3           1           6           3
           3           1           1           1           1           1
           6           3           3           1           1           1
           1           1           6           3           3           1
           1           1           1           1           3           1
           3           1           3           1           6           3
           3           1           1           1           1           1
           6           3           3           1           1           1
           1           1           3           1           3           1
           6           3           3           1           1           1
           1           1           3           1           3           1
           3           1           6           3           3           1
           1           1           1           1           3           1
           3           1           3           1
Shell to atom map                          I   N=         130
           1           1           1           1           1           1
           1           1           2           2           2           2
           2           2           2           2           3           3
           3           3           3           3           3           3
           4           4           4           4           4           4
           4           4           5           5           5           5
           5           5           5           5           6           6
           6           6           6           6           6           6
           7           7           8           8           9           9
           9           9           9           9           9           9
          10          10          10          10          10          10
          10          10          11          11          11          11
          11          11          11          11          12          12
          13          13          14          14          15          15
          15          15          15          15          15          15
          16          16          16          16          16          16
          16          16          17          17          18          18
          19          19          19          19          19          19
          19          19          20          20          21          21
          22          22          23          23          23          23
          23          23          23          23          24          24
          25          25          26          26
Primitive exponents                        R   N=         273
  3.04752490e+03  4.57369510e+02  1.03948690e+02  2.92101550e+01  9.28666300e+00
  3.16392700e+00  7.86827240e+00  1.88128850e+00  5.44249300e-01  7.86827240e+00
  1.88128850e+00  5.44249300e-01  1.68714400e-01  1.68714400e-01  8.00000000e-01
  4.38000000e-02  4.38000000e-02  3.04752490e+03  4.57369510e+02  1.03948690e+02
  2.92101550e+01  9.28666300e+00  3.16392700e+00  7.86827240e+00  1.88128850e+00
  5.44249300e-01  7.86827240e+00  1.88128850e+00  5.44249300e-01  1.68714400e-01
  1.68714400e-01  8.00000000e-01  4.38000000e-02  4.38000000e-02  3.04752490e+03
  4.57369510e+02  1.03948690e+02  2.92101550e+01  9.28666300e+00  3.16392700e+00
  7.86827240e+00  1.88128850e+00  5.44249300e-01  7.86827240e+00  1.88128850e+00
  5.44249300e-01  1.68714400e-01  1.68714400e-01  8.00000000e-01  4.38000000e-02
  4.38000000e-02  3.04752490e+03  4.57369510e+02  1.03948690e+02  2.92101550e+01
  9.28666300e+00  3.16392700e+00  7.86827240e+00  1.88128850e+00  5.44249300e-01
  7.86827240e+00  1.88128850e+00  5.44249300e-01  1.68714400e-01  1.68714400e-01
  8.00000000e-01  4.38000000e-02  4.38000000e-02  3.04752490e+03  4.57369510e+02
  1.03948690e+02  2.92101550e+01  9.28666300e+00  3.16392700e+00  7.86827240e+00
  1.88128850e+00  5.44249300e-01  7.86827240e+00  1.88128850e+00  5.44249300e-01
  1.68714400e-01  1.68714400e-01  8.00000000e-01  4.38000000e-02  4.38000000e-02
  3.04752490e+03  4.57369510e+02  1.03948690e+02  2.92101550e+01  9.28666300e+00
  3.16392700e+00  7.86827240e+00  1.88128850e+00  5.44249300e-01  7.86827240e+00
  1.88128850e+00  5.44249300e-01  1.68714400e-01  1.68714400e-01  8.00000000e-01
  4.38000000e-02  4.38000000e-02  1.87311370e+01  2.82539370e+00  6.40121700e-01
  1.61277800e-01  1.87311370e+01  2.82539370e+00  6.40121700e-01  1.61277800e-01
  3.04752490e+03  4.57369510e+02  1.03948690e+02  2.92101550e+01  9.28666300e+00
  3.16392700e+00  7.86827240e+00  1.88128850e+00  5.44249300e-01  7.86827240e+00
  1.88128850e+00  5.44249300e-01  1.68714400e-01  1.68714400e-01  8.00000000e-01
  4.38000000e-02  4.38000000e-02  3.04752490e+03  4.57369510e+02  1.03948690e+02
  2.92101550e+01  9.28666300e+00  3.16392700e+00  7.86827240e+00  1.88128850e+00
  5.44249300e-01  7.86827240e+00  1.88128850e+00  5.44249300e-01  1.68714400e-01
  1.68714400e-01  8.00000000e-01  4.38000000e-02  4.38000000e-02  5.48467170e+03
  8.25234950e+02  1.88046960e+02  5.29645000e+01  1.68975700e+01  5.79963530e+00
  1.55396160e+01  3.59993360e+00  1.01376180e+00  1.55396160e+01  3.59993360e+00
  1.01376180e+00  2.70005800e-01  2.70005800e-01  8.00000000e-01  8.45000000e-02
  8.45000000e-02  1.87311370e+01  2.82539370e+00  6.40121700e-01  1.61277800e-01
  1.87311370e+01  2.82539370e+00  6.40121700e-01  1.61277800e-01  1.87311370e+01
  2.82539370e+00  6.40121700e-01  1.61277800e-01  3.04752490e+03  4.57369510e+02
  1.03948690e+02  2.92101550e+01  9.28666300e+00  3.16392700e+00  7.86827240e+00
  1.88128850e+00  5.44249300e-01  7.86827240e+00  1.88128850e+00  5.44249300e-01
  1.68714400e-01  1.68714400e-01  8.00000000e-01  4.38000000e-02  4.38000000e-02
  3.04752490e+03  4.57369510e+02  1.03948690e+02  2.92101550e+01  9.28666300e+00
  3.16392700e+00  7.86827240e+00  1.88128850e+00  5.44249300e-01  7.86827240e+00
  1.88128850e+00  5.44249300e-01  1.68714400e-01  1.68714400e-01  8.00000000e-01
  4.38000000e-02  4.38000000e-02  1.87311370e+01  2.82539370e+00  6.40121700e-01
  1.61277800e-01  1.87311370e+01  2.82539370e+00  6.40121700e-01  1.61277800e-01
  3.04752490e+03  4.57369510e+02  1.03948690e+02  2.92101550e+01  9.28666300e+00
  3.16392700e+00  7.86827240e+00  1.88128850e+00  5.44249300e-01  7.86827240e+00
  1.88128850e+00  5.44249300e-01  1.68714400e-01  1.68714400e-01  8.00000000e-01
  4.38000000e-02  4.38000000e-02  1.87311370e+01  2.82539370e+00  6.40121700e-01
  1.61277800e-01  1.87311370e+01  2.82539370e+00  6.40121700e-01  1.61277800e-01
  1.87311370e+01  2.82539370e+00  6.40121700e-01  1.61277800e-01  4.17351100e+03
  6.27457900e+02  1.42902100e+02  4.02343300e+01  1.28202100e+01  4.39043700e+00
  1.16263580e+01  2.71628000e+00  7.72218000e-01  1.16263580e+01  2.71628000e+00
  7.72218000e-01  2.12031300e-01  2.12031300e-01  8.00000000e-01  6.39000000e-02
  6.39000000e-02  1.87311370e+01  2.82539370e+00  6.40121700e-01  1.61277800e-01
  1.87311370e+01  2.82539370e+00  6.40121700e-01  1.61277800e-01  1.87311370e+01
  2.82539370e+00  6.40121700e-01  1.61277800e-01
Contraction coefficients                   R   N=         273
  1.83470016e-03  1.40373012e-02  6.88426061e-02  2.32184421e-01  4.67941342e-01
  3.62312032e-01 -1.19332409e-01 -1.60854212e-01  1.14345648e+00  6.89990956e-02
  3.16423980e-01  7.44308252e-01  1.00000000e+00  1.00000000e+00  1.00000000e+00
  1.00000000e+00  1.00000000e+00  1.83470016e-03  1.40373012e-02  6.88426061e-02
  2.32184421e-01  4.67941342e-01  3.62312032e-01 -1.19332409e-01 -1.60854212e-01
  1.14345648e+00  6.89990956e-02  3.16423980e-01  7.44308252e-01  1.00000000e+00
  1.00000000e+00  1.00000000e+00  1.00000000e+00  1.00000000e+00  1.83470016e-03
  1.40373012e-02  6.88426061e-02  2.32184421e-01  4.67941342e-01  3.62312032e-01
 -1.19332409e-01 -1.60854212e-01  1.14345648e+00  6.89990956e-02  3.16423980e-01
  7.44308252e-01  1.00000000e+00  1.00000000e+00  1.00000000e+00  1.00000000e+00
  1.00000000e+00  1.83470016e-03  1.40373012e-02  6.88426061e-02  2.32184421e-01
  4.67941342e-01  3.62312032e-01 -1.19332409e-01 -1.60854212e-01  1.14345648e+00
  6.89990956e-02  3.16423980e-01  7.44308252e-01  1.00000000e+00  1.00000000e+00
  1.00000000e+00  1.00000000e+00  1.00000000e+00  1.83470016e-03  1.40373012e-02
  6.88426061e-02  2.32184421e-01  4.67941342e-01  3.62312032e-01 -1.19332409e-01
 -1.60854212e-01  1.14345648e+00  6.89990956e-02  3.16423980e-01  7.44308252e-01
  1.00000000e+00  1.00000000e+00  1.00000000e+00  1.00000000e+00  1.00000000e+00
  1.83470016e-03  1.40373012e-02  6.88426061e-02  2.32184421e-01  4.67941342e-01
  3.62312032e-01 -1.19332409e-01 -1.60854212e-01  1.14345648e+00  6.89990956e-02
  3.16423980e-01  7.44308252e-01  1.00000000e+00  1.00000000e+00  1.00000000e+00
  1.00000000e+00  1.00000000e+00  3.34945995e-02  2.34726947e-01  8.13757318e-01
  1.00000000e+00  3.34945995e-02  2.34726947e-01  8.13757318e-01  1.00000000e+00
  1.83470016e-03  1.40373012e-02  6.88426061e-02  2.32184421e-01  4.67941342e-01
  3.62312032e-01 -1.19332409e-01 -1.60854212e-01  1.14345648e+00  6.89990956e-02
  3.16423980e-01  7.44308252e-01  1.00000000e+00  1.00000000e+00  1.00000000e+00
  1.00000000e+00  1.00000000e+00  1.83470016e-03  1.40373012e-02  6.88426061e-02
  2.32184421e-01  4.67941342e-01  3.62312032e-01 -1.19332409e-01 -1.60854212e-01
  1.14345648e+00  6.89990956e-02  3.16423980e-01  7.44308252e-01  1.00000000e+00
  1.00000000e+00  1.00000000e+00  1.00000000e+00  1.00000000e+00  1.83109981e-03
  1.39500985e-02  6.84450927e-02  2.32714275e-01  4.70192950e-01  3.58520862e-01
 -1.10777504e-01 -1.48026305e-01  1.13076704e+00  7.08742995e-02  3.39752798e-01
  7.27158595e-01  1.00000000e+00  1.00000000e+00  1.00000000e+00  1.00000000e+00
  1.00000000e+00  3.34945995e-02  2.34726947e-01  8.13757318e-01  1.00000000e+00
  3.34945995e-02  2.34726947e-01  8.13757318e-01  1.00000000e+00  3.34945995e-02
  2.34726947e-01  8.13757318e-01  1.00000000e+00  1.83470016e-03  1.40373012e-02
  6.88426061e-02  2.32184421e-01  4.67941342e-01  3.62312032e-01 -1.19332409e-01
 -1.60854212e-01  1.14345648e+00  6.89990956e-02  3.16423980e-01  7.44308252e-01
  1.00000000e+00  1.00000000e+00  1.00000000e+00  1.00000000e+00  1.00000000e+00
  1.83470016e-03  1.40373012e-02  6.88426061e-02  2.32184421e-01  4.67941342e-01
  3.62312032e-01 -1.19332409e-01 -1.60854212e-01  1.14345648e+00  6.89990956e-02
  3.16423980e-01  7.44308252e-01  1.00000000e+00  1.00000000e+00  1.00000000e+00
  1.00000000e+00  1.00000000e+00  3.34945995e-02  2.34726947e-01  8.13757318e-01
  1.00000000e+00  3.34945995e-02  2.34726947e-01  8.13757318e-01  1.00000000e+00
  1.83470016e-03  1.40373012e-02  6.88426061e-02  2.32184421e-01  4.67941342e-01
  3.62312032e-01 -1.19332409e-01 -1.60854212e-01  1.14345648e+00  6.89990956e-02
  3.16423980e-01  7.44308252e-01  1.00000000e+00  1.00000000e+00  1.00000000e+00
  1.00000000e+00  1.00000000e+00  3.34945995e-02  2.34726947e-01  8.13757318e-01
  1.00000000e+00  3.34945995e-02  2.34726947e-01  8.13757318e-01  1.00000000e+00
  3.34945995e-02  2.34726947e-01  8.13757318e-01  1.00000000e+00  1.83479944e-03
  1.39949958e-02  6.85869792e-02  2.32240930e-01  4.69069858e-01  3.60454891e-01
 -1.14961023e-01 -1.69118034e-01  1.14585223e+00  6.75800232e-02  3.23907111e-01
  7.40895255e-01  1.00000000e+00  1.00000000e+00  1.00000000e+00  1.00000000e+00
  1.00000000e+00  3.34945995e-02  2.34726947e-01  8.13757318e-01  1.00000000e+00
  3.34945995e-02  2.34726947e-01  8.13757318e-01  1.00000000e+00  3.34945995e-02
  2.34726947e-01  8.13757318e-01  1.00000000e+00
Coordinates of each shell                  R   N=         390
 -7.66910993e-01  1.04795200e+00  1.10821557e+00 -7.66910993e-01  1.04795200e+00
  1.10821557e+00 -7.66910993e-01  1.04795200e+00  1.10821557e+00 -7.66910993e-01
  1.04795200e+00  1.10821557e+00 -7.66910993e-01  1.04795200e+00  1.10821557e+00
 -7.66910993e-01  1.04795200e+00  1.10821557e+00 -7.66910993e-01  1.04795200e+00
  1.10821557e+00 -7.66910993e-01  1.04795200e+00  1.10821557e+00  1.79450925e+00
  1.35249603e+00  1.82197963e+00  1.79450925e+00  1.35249603e+00  1.82197963e+00
  1.79450925e+00  1.35249603e+00  1.82197963e+00  1.79450925e+00  1.35249603e+00
  1.82197963e+00  1.79450925e+00  1.35249603e+00  1.82197963e+00  1.79450925e+00
  1.35249603e+00  1.82197963e+00  1.79450925e+00  1.35249603e+00  1.82197963e+00
  1.79450925e+00  1.35249603e+00  1.82197963e+00  3.78126706e+00  1.04370126e+00
  1.18291248e-01  3.78126706e+00  1.04370126e+00  1.18291248e-01  3.78126706e+00
  1.04370126e+00  1.18291248e-01  3.78126706e+00  1.04370126e+00  1.18291248e-01
  3.78126706e+00  1.04370126e+00  1.18291248e-01  3.78126706e+00  1.04370126e+00
  1.18291248e-01  3.78126706e+00  1.04370126e+00  1.18291248e-01  3.78126706e+00
  1.04370126e+00  1.18291248e-01  3.12325626e+00  4.20385229e-01 -2.34715098e+00
  3.12325626e+00  4.20385229e-01 -2.34715098e+00  3.12325626e+00  4.20385229e-01
 -2.34715098e+00  3.12325626e+00  4.20385229e-01 -2.34715098e+00  3.12325626e+00
  4.20385229e-01 -2.34715098e+00  3.12325626e+00  4.20385229e-01 -2.34715098e+00
  3.12325626e+00  4.20385229e-01 -2.34715098e+00  3.12325626e+00  4.20385229e-01
 -2.34715098e+00  6.10602820e-01  1.09749384e-01 -3.15304488e+00  6.10602820e-01
  1.09749384e-01 -3.15304488e+00  6.10602820e-01  1.09749384e-01 -3.15304488e+00
  6.10602820e-01  1.09749384e-01 -3.15304488e+00  6.10602820e-01  1.09749384e-01
 -3.15304488e+00  6.10602820e-01  1.09749384e-01 -3.15304488e+00  6.10602820e-01
  1.09749384e-01 -3.15304488e+00  6.10602820e-01  1.09749384e-01 -3.15304488e+00
 -1.35014687e+00  4.31646448e-01 -1.39272894e+00 -1.35014687e+00  4.31646448e-01
 -1.39272894e+00 -1.35014687e+00  4.31646448e-01 -1.39272894e+00 -1.35014687e+00
  4.31646448e-01 -1.39272894e+00 -1.35014687e+00  4.31646448e-01 -1.39272894e+00
 -1.35014687e+00  4.31646448e-01 -1.39272894e+00 -1.35014687e+00  4.31646448e-01
 -1.39272894e+00 -1.35014687e+00  4.31646448e-01 -1.39272894e+00  5.73964795e+00
  1.28908646e+00  6.78186494e-01  5.73964795e+00  1.28908646e+00  6.78186494e-01
 -3.31092598e+00  2.09597292e-01 -1.96746694e+00 -3.31092598e+00  2.09597292e-01
 -1.96746694e+00  7.73618651e-01 -5.01753576e-01 -5.80966568e+00  7.73618651e-01
 -5.01753576e-01 -5.80966568e+00  7.73618651e-01 -5.01753576e-01 -5.80966568e+00
  7.73618651e-01 -5.01753576e-01 -5.80966568e+00  7.73618651e-01 -5.01753576e-01
 -5.80966568e+00  7.73618651e-01 -5.01753576e-01 -5.80966568e+00  7.73618651e-01
 -5.01753576e-01 -5.80966568e+00  7.73618651e-01 -5.01753576e-01 -5.80966568e+00
  3.27479979e+00 -5.18655022e-01 -6.38269941e+00  3.27479979e+00 -5.18655022e-01
 -6.38269941e+00  3.27479979e+00 -5.18655022e-01 -6.38269941e+00  3.27479979e+00
 -5.18655022e-01 -6.38269941e+00  3.27479979e+00 -5.18655022e-01 -6.38269941e+00
  3.27479979e+00 -5.18655022e-01 -6.38269941e+00  3.27479979e+00 -5.18655022e-01
 -6.38269941e+00  3.27479979e+00 -5.18655022e-01 -6.38269941e+00  4.75771228e+00
  3.94122895e-02 -4.32411172e+00  4.75771228e+00  3.94122895e-02 -4.32411172e+00
  4.75771228e+00  3.94122895e-02 -4.32411172e+00  4.75771228e+00  3.94122895e-02
 -4.32411172e+00  4.75771228e+00  3.94122895e-02 -4.32411172e+00  4.75771228e+00
  3.94122895e-02 -4.32411172e+00  4.75771228e+00  3.94122895e-02 -4.32411172e+00
  4.75771228e+00  3.94122895e-02 -4.32411172e+00  2.22829959e+00  1.85980516e+00
  3.76624885e+00  2.22829959e+00  1.85980516e+00  3.76624885e+00 -7.64085717e-01
 -8.78352527e-01 -7.10306511e+00 -7.64085717e-01 -8.78352527e-01 -7.10306511e+00
  4.29850658e+00 -8.76392264e-01 -8.11197773e+00  4.29850658e+00 -8.76392264e-01
 -8.11197773e+00 -2.83660669e+00  1.37952215e+00  3.05852689e+00 -2.83660669e+00
  1.37952215e+00  3.05852689e+00 -2.83660669e+00  1.37952215e+00  3.05852689e+00
 -2.83660669e+00  1.37952215e+00  3.05852689e+00 -2.83660669e+00  1.37952215e+00
  3.05852689e+00 -2.83660669e+00  1.37952215e+00  3.05852689e+00 -2.83660669e+00
  1.37952215e+00  3.05852689e+00 -2.83660669e+00  1.37952215e+00  3.05852689e+00
 -3.09779327e+00 -8.35601860e-01  4.94654463e+00 -3.09779327e+00 -8.35601860e-01
  4.94654463e+00 -3.09779327e+00 -8.35601860e-01  4.94654463e+00 -3.09779327e+00
 -8.35601860e-01  4.94654463e+00 -3.09779327e+00 -8.35601860e-01  4.94654463e+00
 -3.09779327e+00 -8.35601860e-01  4.94654463e+00 -3.09779327e+00 -8.35601860e-01
  4.94654463e+00 -3.09779327e+00 -8.35601860e-01  4.94654463e+00 -4.66964726e+00
  1.64729581e+00  2.12897957e+00 -4.66964726e+00  1.64729581e+00  2.12897957e+00
 -2.47306420e+00  3.11074603e+00  4.14992834e+00 -2.47306420e+00  3.11074603e+00
  4.14992834e+00 -3.94355127e+00 -3.28723316e+00  3.66926208e+00 -3.94355127e+00
 -3.28723316e+00  3.66926208e+00 -3.94355127e+00 -3.28723316e+00  3.66926208e+00
 -3.94355127e+00 -3.28723316e+00  3.66926208e+00 -3.94355127e+00 -3.28723316e+00
  3.66926208e+00 -3.94355127e+00 -3.28723316e+00  3.66926208e+00 -3.94355127e+00
 -3.28723316e+00  3.66926208e+00 -3.94355127e+00 -3.28723316e+00  3.66926208e+00
 -5.80522800e+00 -3.03897555e+00  2.79252601e+00 -5.80522800e+00 -3.03897555e+00
  2.79252601e+00 -4.08870331e+00 -4.82505051e+00  5.05426314e+00 -4.08870331e+00
 -4.82505051e+00  5.05426314e+00 -2.59420308e+00 -3.87483500e+00  2.21520966e+00
 -2.59420308e+00 -3.87483500e+00  2.21520966e+00 -4.99515438e+00 -1.16675896e-01
  6.85167913e+00 -4.99515438e+00 -1.16675896e-01  6.85167913e+00 -4.99515438e+00
 -1.16675896e-01  6.85167913e+00 -4.99515438e+00 -1.16675896e-01  6.85167913e+00
 -4.99515438e+00 -1.16675896e-01  6.85167913e+00 -4.99515438e+00 -1.16675896e-01
  6.85167913e+00 -4.99515438e+00 -1.16675896e-01  6.85167913e+00 -4.99515438e+00
 -1.16675896e-01  6.85167913e+00 -1.21980598e+00 -1.16794195e+00  5.79733916e+00
 -1.21980598e+00 -1.16794195e+00  5.79733916e+00 -4.42322561e+00  1.43151116e+00
  7.84472854e+00 -4.42322561e+00  1.43151116e+00  7.84472854e+00 -5.25102692e+00
 -1.53753126e+00  8.12544221e+00 -5.25102692e+00 -1.53753126e+00  8.12544221e+00
Total Energy                               R     -5.569831580385425e+02
Alpha Orbital Energies                     R   N=         273
 -1.92223432e+01 -1.43234701e+01 -1.02541622e+01 -1.02483892e+01 -1.02210398e+01
 -1.02036980e+01 -1.02029641e+01 -1.02017891e+01 -1.02003184e+01 -1.01980254e+01
 -1.01979275e+01 -1.01893992e+01 -1.01757541e+01 -1.11456676e+00 -8.92120849e-01
 -8.63825820e-01 -8.06454809e-01 -7.83434184e-01 -7.35790456e-01 -7.35355475e-01
 -6.91029098e-01 -6.31280738e-01 -6.07234368e-01 -5.91494399e-01 -5.67721847e-01
 -5.27428786e-01 -5.00620540e-01 -4.92699385e-01 -4.88055499e-01 -4.60803045e-01
 -4.53157580e-01 -4.49081466e-01 -4.40621317e-01 -4.28482961e-01 -4.14216755e-01
 -3.95531149e-01 -3.83551993e-01 -3.75554962e-01 -3.65373199e-01 -3.56733473e-01
 -3.47193514e-01 -3.41028467e-01 -3.35967080e-01 -3.00178352e-01 -2.45170301e-01
 -2.37831989e-01 -2.28799677e-01 -3.10016155e-02 -4.51153273e-03  2.90070124e-04
  1.08077574e-02  1.75077523e-02  2.14011701e-02  2.84617399e-02  3.05796538e-02
  3.40559636e-02  4.50674301e-02  4.60722535e-02  5.13136325e-02  5.79957769e-02
  6.41367846e-02  7.31329191e-02  7.76354819e-02  8.23242331e-02  8.83847446e-02
  9.39914158e-02  1.01340196e-01  1.05766767e-01  1.09163083e-01  1.16561668e-01
  1.21987350e-01  1.26732706e-01  1.34891947e-01  1.39280467e-01  1.43166286e-01
  1.53047680e-01  1.54742356e-01  1.60734483e-01  1.64045473e-01  1.70712953e-01
  1.75222753e-01  1.79402230e-01  1.81152661e-01  1.83667599e-01  1.89263008e-01
  1.95230190e-01  1.97861560e-01  2.02018723e-01  2.04748047e-01  2.08048303e-01
  2.15867922e-01  2.20629702e-01  2.21204389e-01  2.24614452e-01  2.27820797e-01
  2.33337224e-01  2.37277810e-01  2.42478519e-01  2.49083667e-01  2.56017801e-01
  2.57453590e-01  2.61379755e-01  2.74334351e-01  2.82614499e-01  2.88624153e-01
  2.90946169e-01  2.94966402e-01  3.01101209e-01  3.05214489e-01  3.09123267e-01
  3.15822640e-01  3.18548799e-01  3.33419408e-01  3.35006401e-01  3.40272888e-01
  3.48579329e-01  3.55962417e-01  3.66970773e-01  3.68194419e-01  3.74535021e-01
  3.78999866e-01  3.81386936e-01  4.13204339e-01  4.26753170e-01  4.33384402e-01
  4.50035176e-01  4.83784400e-01  5.10714472e-01  5.79268395e-01  6.10213197e-01
  6.48693291e-01  6.56873101e-01  6.72423239e-01  6.82791161e-01  6.92288438e-01
  7.00298188e-01  7.01473638e-01  7.11529074e-01  7.19233245e-01  7.24818629e-01
  7.46439697e-01  7.51368680e-01  7.60921364e-01  7.65064701e-01  7.69530815e-01
  7.80693519e-01  7.81659379e-01  8.00596659e-01  8.08200047e-01  8.16080769e-01
  8.52806629e-01  8.80810158e-01  8.95123721e-01  8.97412448e-01  9.02060310e-01
  9.22862966e-01  9.37676787e-01  9.46915983e-01  9.59344710e-01  9.69736002e-01
  9.92929802e-01  9.98066414e-01  1.01794075e+00  1.02607478e+00  1.03961822e+00
  1.04547495e+00  1.07036540e+00  1.08578052e+00  1.09056370e+00  1.09355586e+00
  1.14102986e+00  1.14738690e+00  1.15579254e+00  1.16338547e+00  1.16593383e+00
  1.17778055e+00  1.19656408e+00  1.20938550e+00  1.21249034e+00  1.21864299e+00
  1.23241358e+00  1.24951076e+00  1.27784553e+00  1.28428355e+00  1.30070930e+00
  1.33846790e+00  1.35482543e+00  1.36411131e+00  1.40220708e+00  1.40920066e+00
  1.42245179e+00  1.42793924e+00  1.45157572e+00  1.47094132e+00  1.48266047e+00
  1.49194237e+00  1.50478147e+00  1.52593760e+00  1.55534116e+00  1.59078879e+00
  1.64593016e+00  1.65873517e+00  1.71474800e+00  1.77479843e+00  1.79182419e+00
  1.81601940e+00  1.83331523e+00  1.85323040e+00  1.85348266e+00  1.86652491e+00
  1.89220964e+00  1.90258963e+00  1.91757406e+00  1.92888335e+00  1.96423615e+00
  1.97118537e+00  1.98957684e+00  2.01085481e+00  2.04693204e+00  2.06279844e+00
  2.08368289e+00  2.11843424e+00  2.13727076e+00  2.14750043e+00  2.16617608e+00
  2.16923695e+00  2.20386283e+00  2.22078449e+00  2.23939119e+00  2.24730762e+00
  2.25128615e+00  2.30962392e+00  2.32747966e+00  2.33140530e+00  2.34775397e+00
  2.38082102e+00  2.40621459e+00  2.43130770e+00  2.44550691e+00  2.45960304e+00
  2.52705454e+00  2.56579714e+00  2.56936530e+00  2.60458097e+00  2.65121204e+00
  2.66937857e+00  2.70197227e+00  2.71854914e+00  2.73117972e+00  2.75840343e+00
  2.78203002e+00  2.83650042e+00  2.85560713e+00  2.90629708e+00  2.97324701e+00
  2.98409201e+00  3.05378707e+00  3.10403599e+00  3.22897160e+00  3.45141268e+00
  3.97325494e+00  4.24322753e+00  4.27622510e+00  4.29608240e+00  4.31485112e+00
  4.36802471e+00  4.37749197e+00  4.40281486e+00  4.46665110e+00  4.54968582e+00
  4.59703559e+00  4.62509030e+00  4.83961061e+00
Alpha MO coefficients                      R   N=       74529
  8.87500147e-07  7.56893229e-06 -9.70964960e-06  1.51962614e-06  6.87872566e-06
 -3.03057269e-04 -3.41309251e-04 -9.64524938e-05 -3.32103222e-04 -1.28392107e-05
 -1.33581406e-06  1.05359698e-05  1.85848454e-06  8.89295189e-06  3.93474243e-06
  2.05635506e-03  3.45443317e-03  1.07180087e-03  3.75685577e-03 -7.97370318e-06
 -3.45139305e-05  8.79692426e-06  7.11611375e-06  2.21025205e-05  1.07688559e-04
 -6.28540764e-04 -8.43679962e-05 -1.85371741e-04 -1.37819224e-05 -1.63435085e-05
 -4.92838866e-06  2.91536157e-06  1.06595374e-05  3.85886224e-06  1.36928693e-03
  6.99542463e-03  2.16291719e-04 -7.22240293e-04  7.74786868e-06 -1.79018748e-06
 -1.28468962e-05  1.14227725e-06  5.97344173e-06 -7.42608477e-04 -9.72656120e-05
  2.22650371e-04  9.47103487e-04  3.49894382e-05  3.04687099e-06  2.60545853e-05
 -6.60877205e-07 -1.12520307e-05  6.27517849e-06  3.79051776e-02  1.86922511e-03
 -3.54824073e-03 -1.50374765e-02  5.01714977e-05 -3.26945660e-05 -2.82471538e-04
  6.60632294e-05  3.42348951e-04 -8.49193287e-05  1.35661129e-03  2.37051069e-04