Generated by Psi4
     FORCE                           RHF                       TESTBAS
Number of atoms                            I               32
Charge                                     I                0
Multiplicity                               I                1
Number of electrons                        I              110
Number of alpha electrons                  I               55
Number of beta electrons                   I               55
Number of basis functions                  I              319
Number of independent functions            I              319
Atomic numbers                             I   N=          32
           6           6           6           6           6           6
           1           1           6           6           8           1
           6           6           1           1           6           1
           1           1           7           1           6           1
           1           1           6           1           1           1
           1           1
Nuclear charges                            R   N=          32
  6.00000000e+00  6.00000000e+00  6.00000000e+00  6.00000000e+00  6.00000000e+00
  6.00000000e+00  1.00000000e+00  1.00000000e+00  6.00000000e+00  6.00000000e+00
  8.00000000e+00  1.00000000e+00  6.00000000e+00  6.00000000e+00  1.00000000e+00
  1.00000000e+00  6.00000000e+00  1.00000000e+00  1.00000000e+00  1.00000000e+00
  7.00000000e+00  1.00000000e+00  6.00000000e+00  1.00000000e+00  1.00000000e+00
  1.00000000e+00  6.00000000e+00  1.00000000e+00  1.00000000e+00  1.00000000e+00
  1.00000000e+00  1.00000000e+00
Current cartesian coordinates              R   N=          96
 -9.84162517e-02  8.19512409e-01 -2.35092577e-01  2.45734814e+00  1.01533179e+00
  5.37333774e-01  4.46373257e+00  8.50182014e-01 -1.16320351e+00  3.83306157e+00
  4.84672757e-01 -3.68687500e+00  1.32784980e+00  2.90273557e-01 -4.55148472e+00
 -6.53131120e-01  4.61104139e-01 -2.79176707e+00  6.41700140e+00  1.01082133e+00
 -5.56471978e-01 -2.60852190e+00  3.24745525e-01 -3.41037901e+00  1.52042738e+00
 -5.49324576e-02 -7.25400121e+00  4.02864783e+00 -4.63191497e-02 -7.79472267e+00
  5.48978416e+00  2.79561096e-01 -5.67204613e+00  2.87007067e+00  1.32076980e+00
  2.52770602e+00 -2.18971441e+00  9.92509669e-01  1.71458322e+00 -2.46589712e+00
 -1.37929794e+00  3.41323058e+00 -4.01304147e+00  1.32386431e+00  7.86027350e-01
 -1.84407287e+00  2.63661015e+00  2.92907108e+00 -3.38180422e+00 -3.67033021e+00
  1.90263978e+00 -5.28415141e+00 -3.32666610e+00  1.15143486e+00 -3.45394392e+00
 -5.36640883e+00  3.09556252e+00 -2.11587553e+00 -4.07033153e+00  3.17176783e-01
 -4.26894817e+00 -8.57946623e-01  5.46252250e+00 -5.77592623e-01 -1.83130811e+00
  4.19571212e+00 -3.25759417e+00  5.61419851e-01  7.61183073e+00 -4.98401029e+00
 -2.52538311e+00  6.10801444e+00 -3.30032543e-03 -2.78723492e-01 -8.59838490e+00
  5.07141126e+00 -2.41263193e-01 -9.53855376e+00 -5.23508358e+00  8.27424838e-01
  9.69926532e+00 -2.70448896e+00  2.44749050e+00  6.95529445e+00 -1.52799442e+00
 -3.26986725e-01  8.39008702e+00 -6.92762767e+00  1.78249289e+00  8.98566164e+00
 -4.48010967e+00  1.92101717e+00  1.12884899e+01 -5.80691015e+00 -1.02829082e+00
  1.04319152e+01
Integer atomic weights                     I   N=          32
          12          12          12          12          12          12
           1           1          12          12          15           1
          12          12           1           1          12           1
           1           1          14           1          12           1
           1           1          12           1           1           1
           1           1
Real atomic weights                        R   N=          32
  1.20000000e+01  1.20000000e+01  1.20000000e+01  1.20000000e+01  1.20000000e+01
  1.20000000e+01  1.00782503e+00  1.00782503e+00  1.20000000e+01  1.20000000e+01
  1.59949146e+01  1.00782503e+00  1.20000000e+01  1.20000000e+01  1.00782503e+00
  1.00782503e+00  1.20000000e+01  1.00782503e+00  1.00782503e+00  1.00782503e+00
  1.40030740e+01  1.00782503e+00  1.20000000e+01  1.00782503e+00  1.00782503e+00
  1.00782503e+00  1.20000000e+01  1.00782503e+00  1.00782503e+00  1.00782503e+00
  1.00782503e+00  1.00782503e+00
Number of primitive shells                 I              323
Number of contracted shells                I              154
Pure/Cartesian d shells                    I                1
Pure/Cartesian f shells                    I                1
Highest angular momentum                   I                2
Largest degree of contraction              I                6
Shell types                                I   N=         154
           0           0           1           0           1           2
           0           1           0           0           1           0
           1           2           0           1           0           0
           1           0           1           2           0           1
           0           0           1           0           1           2
           0           1           0           0           1           0
           1           2           0           1           0           0
           1           0           1           2           0           1
           0           0           0           0           0           0
           1           0           1           2           0           1
           0           0           1           0           1           2
           0           1           0           0           1           0
           1           2           0           1           0           0
           0           0           1           0           1           2
           0           1           0           0           1           0
           1           2           0           1           0           0
           0           0           0           0           1           0
           1           2           0           1           0           0
           0           0           0           0           0           0
           1           0           1           2           0           1
           0           0           0           0           1           0
           1           2           0           1           0           0
           0           0           0           0           0           0
           1           0           1           2           0           1
           0           0           0           0           0           0
           0           0           0           0
Number of primitives per shell             I   N=         154
           6           3           3           1           1           1
           1           1           6           3           3           1
           1           1           1           1           6           3
           3           1           1           1           1           1
           6           3           3           1           1           1
           1           1           6           3           3           1
           1           1           1           1           6           3
           3           1           1           1           1           1
           3           1           3           1           6           3
           3           1           1           1           1           1
           6           3           3           1           1           1
           1           1           6           3           3           1
           1           1           1           1           3           1
           6           3           3           1           1           1
           1           1           6           3           3           1
           1           1           1           1           3           1
           3           1           6           3           3           1
           1           1           1           1           3           1
           3           1           3           1           6           3
           3           1           1           1           1           1
           3           1           6           3           3           1
           1           1           1           1           3           1
           3           1           3           1           6           3
           3           1           1           1           1           1
           3           1           3           1           3           1
           3           1           3           1
Shell to atom map                          I   N=         154
           1           1           1           1           1           1
           1           1           2           2           2           2
           2           2           2           2           3           3
           3           3           3           3           3           3
           4           4           4           4           4           4
           4           4           5           5           5           5
           5           5           5           5           6           6
           6           6           6           6           6           6
           7           7           8           8           9           9
           9           9           9           9           9           9
          10          10          10          10          10          10
          10          10          11          11          11          11
          11          11          11          11          12          12
          13          13          13          13          13          13
          13          13          14          14          14          14
          14          14          14          14          15          15
          16          16          17          17          17          17
          17          17          17          17          18          18
          19          19          20          20          21          21
          21          21          21          21          21          21
          22          22          23          23          23          23
          23          23          23          23          24          24
          25          25          26          26          27          27
          27          27          27          27          27          27
          28          28          29          29          30          30
          31          31          32          32
Primitive exponents                        R   N=         323
  3.04752490e+03  4.57369510e+02  1.03948690e+02  2.92101550e+01  9.28666300e+00
  3.16392700e+00  7.86827240e+00  1.88128850e+00  5.44249300e-01  7.86827240e+00
  1.88128850e+00  5.44249300e-01  1.68714400e-01  1.68714400e-01  8.00000000e-01
  4.38000000e-02  4.38000000e-02  3.04752490e+03  4.57369510e+02  1.03948690e+02
  2.92101550e+01  9.28666300e+00  3.16392700e+00  7.86827240e+00  1.88128850e+00
  5.44249300e-01  7.86827240e+00  1.88128850e+00  5.44249300e-01  1.68714400e-01
  1.68714400e-01  8.00000000e-01  4.38000000e-02  4.38000000e-02  3.04752490e+03
  4.57369510e+02  1.03948690e+02  2.92101550e+01  9.28666300e+00  3.16392700e+00
  7.86827240e+00  1.88128850e+00  5.44249300e-01  7.86827240e+00  1.88128850e+00
  5.44249300e-01  1.68714400e-01  1.68714400e-01  8.00000000e-01  4.38000000e-02
  4.38000000e-02  3.04752490e+03  4.57369510e+02  1.03948690e+02  2.92101550e+01
  9.28666300e+00  3.16392700e+00  7.86827240e+00  1.88128850e+00  5.44249300e-01
  7.86827240e+00  1.88128850e+00  5.44249300e-01  1.68714400e-01  1.68714400e-01
  8.00000000e-01  4.38000000e-02  4.38000000e-02  3.04752490e+03  4.57369510e+02
  1.03948690e+02  2.92101550e+01  9.28666300e+00  3.16392700e+00  7.86827240e+00
  1.88128850e+00  5.44249300e-01  7.86827240e+00  1.88128850e+00  5.44249300e-01
  1.68714400e-01  1.68714400e-01  8.00000000e-01  4.38000000e-02  4.38000000e-02
  3.04752490e+03  4.57369510e+02  1.03948690e+02  2.92101550e+01  9.28666300e+00
  3.16392700e+00  7.86827240e+00  1.88128850e+00  5.44249300e-01  7.86827240e+00
  1.88128850e+00  5.44249300e-01  1.68714400e-01  1.68714400e-01  8.00000000e-01
  4.38000000e-02  4.38000000e-02  1.87311370e+01  2.82539370e+00  6.40121700e-01
  1.61277800e-01  1.87311370e+01  2.82539370e+00  6.40121700e-01  1.61277800e-01
  3.04752490e+03  4.57369510e+02  1.03948690e+02  2.92101550e+01  9.28666300e+00
  3.16392700e+00  7.86827240e+00  1.88128850e+00  5.44249300e-01  7.86827240e+00
  1.88128850e+00  5.44249300e-01  1.68714400e-01  1.68714400e-01  8.00000000e-01
  4.38000000e-02  4.38000000e-02  3.04752490e+03  4.57369510e+02  1.03948690e+02
  2.92101550e+01  9.28666300e+00  3.16392700e+00  7.86827240e+00  1.88128850e+00
  5.44249300e-01  7.86827240e+00  1.88128850e+00  5.44249300e-01  1.68714400e-01
  1.68714400e-01  8.00000000e-01  4.38000000e-02  4.38000000e-02  5.48467170e+03
  8.25234950e+02  1.88046960e+02  5.29645000e+01  1.68975700e+01  5.79963530e+00
  1.55396160e+01  3.59993360e+00  1.01376180e+00  1.55396160e+01  3.59993360e+00
  1.01376180e+00  2.70005800e-01  2.70005800e-01  8.00000000e-01  8.45000000e-02
  8.45000000e-02  1.87311370e+01  2.82539370e+00  6.40121700e-01  1.61277800e-01
  3.04752490e+03  4.57369510e+02  1.03948690e+02  2.92101550e+01  9.28666300e+00
  3.16392700e+00  7.86827240e+00  1.88128850e+00  5.44249300e-01  7.86827240e+00
  1.88128850e+00  5.44249300e-01  1.68714400e-01  1.68714400e-01  8.00000000e-01
  4.38000000e-02  4.38000000e-02  3.04752490e+03  4.57369510e+02  1.03948690e+02
  2.92101550e+01  9.28666300e+00  3.16392700e+00  7.86827240e+00  1.88128850e+00
  5.44249300e-01  7.86827240e+00  1.88128850e+00  5.44249300e-01  1.68714400e-01
  1.68714400e-01  8.00000000e-01  4.38000000e-02  4.38000000e-02  1.87311370e+01
  2.82539370e+00  6.40121700e-01  1.61277800e-01  1.87311370e+01  2.82539370e+00
  6.40121700e-01  1.61277800e-01  3.04752490e+03  4.57369510e+02  1.03948690e+02
  2.92101550e+01  9.28666300e+00  3.16392700e+00  7.86827240e+00  1.88128850e+00
  5.44249300e-01  7.86827240e+00  1.88128850e+00  5.44249300e-01  1.68714400e-01
  1.68714400e-01  8.00000000e-01  4.38000000e-02  4.38000000e-02  1.87311370e+01
  2.82539370e+00  6.40121700e-01  1.61277800e-01  1.87311370e+01  2.82539370e+00
  6.40121700e-01  1.61277800e-01  1.87311370e+01  2.82539370e+00  6.40121700e-01
  1.61277800e-01  4.17351100e+03  6.27457900e+02  1.42902100e+02  4.02343300e+01
  1.28202100e+01  4.39043700e+00  1.16263580e+01  2.71628000e+00  7.72218000e-01
  1.16263580e+01  2.71628000e+00  7.72218000e-01  2.12031300e-01  2.12031300e-01
  8.00000000e-01  6.39000000e-02  6.39000000e-02  1.87311370e+01  2.82539370e+00
  6.40121700e-01  1.61277800e-01  3.04752490e+03  4.57369510e+02  1.03948690e+02
  2.92101550e+01  9.28666300e+00  3.16392700e+00  7.86827240e+00  1.88128850e+00
  5.44249300e-01  7.86827240e+00  1.88128850e+00  5.44249300e-01  1.68714400e-01
  1.68714400e-01  8.00000000e-01  4.38000000e-02  4.38000000e-02  1.87311370e+01
  2.82539370e+00  6.40121700e-01  1.61277800e-01  1.87311370e+01  2.82539370e+00
  6.40121700e-01  1.61277800e-01  1.87311370e+01  2.82539370e+00  6.40121700e-01
  1.61277800e-01  3.04752490e+03  4.57369510e+02  1.03948690e+02  2.92101550e+01
  9.28666300e+00  3.16392700e+00  7.86827240e+00  1.88128850e+00  5.44249300e-01
  7.86827240e+00  1.88128850e+00  5.44249300e-01  1.68714400e-01  1.68714400e-01
  8.00000000e-01  4.38000000e-02  4.38000000e-02  1.87311370e+01  2.82539370e+00
  6.40121700e-01  1.61277800e-01  1.87311370e+01  2.82539370e+00  6.40121700e-01
  1.61277800e-01  1.87311370e+01  2.82539370e+00  6.40121700e-01  1.61277800e-01
  1.87311370e+01  2.82539370e+00  6.40121700e-01  1.61277800e-01  1.87311370e+01
  2.82539370e+00  6.40121700e-01  1.61277800e-01
Contraction coefficients                   R   N=         323
  1.83470016e-03  1.40373012e-02  6.88426061e-02  2.32184421e-01  4.67941342e-01
  3.62312032e-01 -1.19332409e-01 -1.60854212e-01  1.14345648e+00  6.89990956e-02
  3.16423980e-01  7.44308252e-01  1.00000000e+00  1.00000000e+00  1.00000000e+00
  1.00000000e+00  1.00000000e+00  1.83470016e-03  1.40373012e-02  6.88426061e-02
  2.32184421e-01  4.67941342e-01  3.62312032e-01 -1.19332409e-01 -1.60854212e-01
  1.14345648e+00  6.89990956e-02  3.16423980e-01  7.44308252e-01  1.00000000e+00
  1.00000000e+00  1.00000000e+00  1.00000000e+00  1.00000000e+00  1.83470016e-03
  1.40373012e-02  6.88426061e-02  2.32184421e-01  4.67941342e-01  3.62312032e-01
 -1.19332409e-01 -1.60854212e-01  1.14345648e+00  6.89990956e-02  3.16423980e-01
  7.44308252e-01  1.00000000e+00  1.00000000e+00  1.00000000e+00  1.00000000e+00
  1.00000000e+00  1.83470016e-03  1.40373012e-02  6.88426061e-02  2.32184421e-01
  4.67941342e-01  3.62312032e-01 -1.19332409e-01 -1.60854212e-01  1.14345648e+00
  6.89990956e-02  3.16423980e-01  7.44308252e-01  1.00000000e+00  1.00000000e+00
  1.00000000e+00  1.00000000e+00  1.00000000e+00  1.83470016e-03  1.40373012e-02
  6.88426061e-02  2.32184421e-01  4.67941342e-01  3.62312032e-01 -1.19332409e-01
 -1.60854212e-01  1.14345648e+00  6.89990956e-02  3.16423980e-01  7.44308252e-01
  1.00000000e+00  1.00000000e+00  1.00000000e+00  1.00000000e+00  1.00000000e+00
  1.83470016e-03  1.40373012e-02  6.88426061e-02  2.32184421e-01  4.67941342e-01
  3.62312032e-01 -1.19332409e-01 -1.60854212e-01  1.14345648e+00  6.89990956e-02
  3.16423980e-01  7.44308252e-01  1.00000000e+00  1.00000000e+00  1.00000000e+00
  1.00000000e+00  1.00000000e+00  3.34945995e-02  2.34726947e-01  8.13757318e-01
  1.00000000e+00  3.34945995e-02  2.34726947e-01  8.13757318e-01  1.00000000e+00
  1.83470016e-03  1.40373012e-02  6.88426061e-02  2.32184421e-01  4.67941342e-01
  3.62312032e-01 -1.19332409e-01 -1.60854212e-01  1.14345648e+00  6.89990956e-02
  3.16423980e-01  7.44308252e-01  1.00000000e+00  1.00000000e+00  1.00000000e+00
  1.00000000e+00  1.00000000e+00  1.83470016e-03  1.40373012e-02  6.88426061e-02
  2.32184421e-01  4.67941342e-01  3.62312032e-01 -1.19332409e-01 -1.60854212e-01
  1.14345648e+00  6.89990956e-02  3.16423980e-01  7.44308252e-01  1.00000000e+00
  1.00000000e+00  1.00000000e+00  1.00000000e+00  1.00000000e+00  1.83109981e-03
  1.39500985e-02  6.84450927e-02  2.32714275e-01  4.70192950e-01  3.58520862e-01
 -1.10777504e-01 -1.48026305e-01  1.13076704e+00  7.08742995e-02  3.39752798e-01
  7.27158595e-01  1.00000000e+00  1.00000000e+00  1.00000000e+00  1.00000000e+00
  1.00000000e+00  3.34945995e-02  2.34726947e-01  8.13757318e-01  1.00000000e+00
  1.83470016e-03  1.40373012e-02  6.88426061e-02  2.32184421e-01  4.67941342e-01
  3.62312032e-01 -1.19332409e-01 -1.60854212e-01  1.14345648e+00  6.89990956e-02
  3.16423980e-01  7.44308252e-01  1.00000000e+00  1.00000000e+00  1.00000000e+00
  1.00000000e+00  1.00000000e+00  1.83470016e-03  1.40373012e-02  6.88426061e-02
  2.32184421e-01  4.67941342e-01  3.62312032e-01 -1.19332409e-01 -1.60854212e-01
  1.14345648e+00  6.89990956e-02  3.16423980e-01  7.44308252e-01  1.00000000e+00
  1.00000000e+00  1.00000000e+00  1.00000000e+00  1.00000000e+00  3.34945995e-02
  2.34726947e-01  8.13757318e-01  1.00000000e+00  3.34945995e-02  2.34726947e-01
  8.13757318e-01  1.00000000e+00  1.83470016e-03  1.40373012e-02  6.88426061e-02
  2.32184421e-01  4.67941342e-01  3.62312032e-01 -1.19332409e-01 -1.60854212e-01
  1.14345648e+00  6.89990956e-02  3.16423980e-01  7.44308252e-01  1.00000000e+00
  1.00000000e+00  1.00000000e+00  1.00000000e+00  1.00000000e+00  3.34945995e-02
  2.34726947e-01  8.13757318e-01  1.00000000e+00  3.34945995e-02  2.34726947e-01
  8.13757318e-01  1.00000000e+00  3.34945995e-02  2.34726947e-01  8.13757318e-01
  1.00000000e+00  1.83479944e-03  1.39949958e-02  6.85869792e-02  2.32240930e-01
  4.69069858e-01  3.60454891e-01 -1.14961023e-01 -1.69118034e-01  1.14585223e+00
  6.75800232e-02  3.23907111e-01  7.40895255e-01  1.00000000e+00  1.00000000e+00
  1.00000000e+00  1.00000000e+00  1.00000000e+00  3.34945995e-02  2.34726947e-01
  8.13757318e-01  1.00000000e+00  1.83470016e-03  1.40373012e-02  6.88426061e-02
  2.32184421e-01  4.67941342e-01  3.62312032e-01 -1.19332409e-01 -1.60854212e-01
  1.14345648e+00  6.89990956e-02  3.16423980e-01  7.44308252e-01  1.00000000e+00
  1.00000000e+00  1.00000000e+00  1.00000000e+00  1.00000000e+00  3.34945995e-02
  2.34726947e-01  8.13757318e-01  1.00000000e+00  3.34945995e-02  2.34726947e-01
  8.13757318e-01  1.00000000e+00  3.34945995e-02  2.34726947e-01  8.13757318e-01
  1.00000000e+00  1.83470016e-03  1.40373012e-02  6.88426061e-02  2.32184421e-01
  4.67941342e-01  3.62312032e-01 -1.19332409e-01 -1.60854212e-01  1.14345648e+00
  6.89990956e-02  3.16423980e-01  7.44308252e-01  1.00000000e+00  1.00000000e+00
  1.00000000e+00  1.00000000e+00  1.00000000e+00  3.34945995e-02  2.34726947e-01
  8.13757318e-01  1.00000000e+00  3.34945995e-02  2.34726947e-01  8.13757318e-01
  1.00000000e+00  3.34945995e-02  2.34726947e-01  8.13757318e-01  1.00000000e+00
  3.34945995e-02  2.34726947e-01  8.13757318e-01  1.00000000e+00  3.34945995e-02
  2.34726947e-01  8.13757318e-01  1.00000000e+00
Coordinates of each shell                  R   N=         462
 -9.84162517e-02  8.19512409e-01 -2.35092577e-01 -9.84162517e-02  8.19512409e-01
 -2.35092577e-01 -9.84162517e-02  8.19512409e-01 -2.35092577e-01 -9.84162517e-02
  8.19512409e-01 -2.35092577e-01 -9.84162517e-02  8.19512409e-01 -2.35092577e-01
 -9.84162517e-02  8.19512409e-01 -2.35092577e-01 -9.84162517e-02  8.19512409e-01
 -2.35092577e-01 -9.84162517e-02  8.19512409e-01 -2.35092577e-01  2.45734814e+00
  1.01533179e+00  5.37333774e-01  2.45734814e+00  1.01533179e+00  5.37333774e-01
  2.45734814e+00  1.01533179e+00  5.37333774e-01  2.45734814e+00  1.01533179e+00
  5.37333774e-01  2.45734814e+00  1.01533179e+00  5.37333774e-01  2.45734814e+00
  1.01533179e+00  5.37333774e-01  2.45734814e+00  1.01533179e+00  5.37333774e-01
  2.45734814e+00  1.01533179e+00  5.37333774e-01  4.46373257e+00  8.50182014e-01
 -1.16320351e+00  4.46373257e+00  8.50182014e-01 -1.16320351e+00  4.46373257e+00
  8.50182014e-01 -1.16320351e+00  4.46373257e+00  8.50182014e-01 -1.16320351e+00
  4.46373257e+00  8.50182014e-01 -1.16320351e+00  4.46373257e+00  8.50182014e-01
 -1.16320351e+00  4.46373257e+00  8.50182014e-01 -1.16320351e+00  4.46373257e+00
  8.50182014e-01 -1.16320351e+00  3.83306157e+00  4.84672757e-01 -3.68687500e+00
  3.83306157e+00  4.84672757e-01 -3.68687500e+00  3.83306157e+00  4.84672757e-01
 -3.68687500e+00  3.83306157e+00  4.84672757e-01 -3.68687500e+00  3.83306157e+00
  4.84672757e-01 -3.68687500e+00  3.83306157e+00  4.84672757e-01 -3.68687500e+00
  3.83306157e+00  4.84672757e-01 -3.68687500e+00  3.83306157e+00  4.84672757e-01
 -3.68687500e+00  1.32784980e+00  2.90273557e-01 -4.55148472e+00  1.32784980e+00
  2.90273557e-01 -4.55148472e+00  1.32784980e+00  2.90273557e-01 -4.55148472e+00
  1.32784980e+00  2.90273557e-01 -4.55148472e+00  1.32784980e+00  2.90273557e-01
 -4.55148472e+00  1.32784980e+00  2.90273557e-01 -4.55148472e+00  1.32784980e+00
  2.90273557e-01 -4.55148472e+00  1.32784980e+00  2.90273557e-01 -4.55148472e+00
 -6.53131120e-01  4.61104139e-01 -2.79176707e+00 -6.53131120e-01  4.61104139e-01
 -2.79176707e+00 -6.53131120e-01  4.61104139e-01 -2.79176707e+00 -6.53131120e-01
  4.61104139e-01 -2.79176707e+00 -6.53131120e-01  4.61104139e-01 -2.79176707e+00
 -6.53131120e-01  4.61104139e-01 -2.79176707e+00 -6.53131120e-01  4.61104139e-01
 -2.79176707e+00 -6.53131120e-01  4.61104139e-01 -2.79176707e+00  6.41700140e+00
  1.01082133e+00 -5.56471978e-01  6.41700140e+00  1.01082133e+00 -5.56471978e-01
 -2.60852190e+00  3.24745525e-01 -3.41037901e+00 -2.60852190e+00  3.24745525e-01
 -3.41037901e+00  1.52042738e+00 -5.49324576e-02 -7.25400121e+00  1.52042738e+00
 -5.49324576e-02 -7.25400121e+00  1.52042738e+00 -5.49324576e-02 -7.25400121e+00
  1.52042738e+00 -5.49324576e-02 -7.25400121e+00  1.52042738e+00 -5.49324576e-02
 -7.25400121e+00  1.52042738e+00 -5.49324576e-02 -7.25400121e+00  1.52042738e+00
 -5.49324576e-02 -7.25400121e+00  1.52042738e+00 -5.49324576e-02 -7.25400121e+00
  4.02864783e+00 -4.63191497e-02 -7.79472267e+00  4.02864783e+00 -4.63191497e-02
 -7.79472267e+00  4.02864783e+00 -4.63191497e-02 -7.79472267e+00  4.02864783e+00
 -4.63191497e-02 -7.79472267e+00  4.02864783e+00 -4.63191497e-02 -7.79472267e+00
  4.02864783e+00 -4.63191497e-02 -7.79472267e+00  4.02864783e+00 -4.63191497e-02
 -7.79472267e+00  4.02864783e+00 -4.63191497e-02 -7.79472267e+00  5.48978416e+00
  2.79561096e-01 -5.67204613e+00  5.48978416e+00  2.79561096e-01 -5.67204613e+00
  5.48978416e+00  2.79561096e-01 -5.67204613e+00  5.48978416e+00  2.79561096e-01
 -5.67204613e+00  5.48978416e+00  2.79561096e-01 -5.67204613e+00  5.48978416e+00
  2.79561096e-01 -5.67204613e+00  5.48978416e+00  2.79561096e-01 -5.67204613e+00
  5.48978416e+00  2.79561096e-01 -5.67204613e+00  2.87007067e+00  1.32076980e+00
  2.52770602e+00  2.87007067e+00  1.32076980e+00  2.52770602e+00 -2.18971441e+00
  9.92509669e-01  1.71458322e+00 -2.18971441e+00  9.92509669e-01  1.71458322e+00
 -2.18971441e+00  9.92509669e-01  1.71458322e+00 -2.18971441e+00  9.92509669e-01
  1.71458322e+00 -2.18971441e+00  9.92509669e-01  1.71458322e+00 -2.18971441e+00
  9.92509669e-01  1.71458322e+00 -2.18971441e+00  9.92509669e-01  1.71458322e+00
 -2.18971441e+00  9.92509669e-01  1.71458322e+00 -2.46589712e+00 -1.37929794e+00
  3.41323058e+00 -2.46589712e+00 -1.37929794e+00  3.41323058e+00 -2.46589712e+00
 -1.37929794e+00  3.41323058e+00 -2.46589712e+00 -1.37929794e+00  3.41323058e+00
 -2.46589712e+00 -1.37929794e+00  3.41323058e+00 -2.46589712e+00 -1.37929794e+00
  3.41323058e+00 -2.46589712e+00 -1.37929794e+00  3.41323058e+00 -2.46589712e+00
 -1.37929794e+00  3.41323058e+00 -4.01304147e+00  1.32386431e+00  7.86027350e-01
 -4.01304147e+00  1.32386431e+00  7.86027350e-01 -1.84407287e+00  2.63661015e+00
  2.92907108e+00 -1.84407287e+00  2.63661015e+00  2.92907108e+00 -3.38180422e+00
 -3.67033021e+00  1.90263978e+00 -3.38180422e+00 -3.67033021e+00  1.90263978e+00
 -3.38180422e+00 -3.67033021e+00  1.90263978e+00 -3.38180422e+00 -3.67033021e+00
  1.90263978e+00 -3.38180422e+00 -3.67033021e+00  1.90263978e+00 -3.38180422e+00
 -3.67033021e+00  1.90263978e+00 -3.38180422e+00 -3.67033021e+00  1.90263978e+00
 -3.38180422e+00 -3.67033021e+00  1.90263978e+00 -5.28415141e+00 -3.32666610e+00
  1.15143486e+00 -5.28415141e+00 -3.32666610e+00  1.15143486e+00 -3.45394392e+00
 -5.36640883e+00  3.09556252e+00 -3.45394392e+00 -5.36640883e+00  3.09556252e+00
 -2.11587553e+00 -4.07033153e+00  3.17176783e-01 -2.11587553e+00 -4.07033153e+00
  3.17176783e-01 -4.26894817e+00 -8.57946623e-01  5.46252250e+00 -4.26894817e+00
 -8.57946623e-01  5.46252250e+00 -4.26894817e+00 -8.57946623e-01  5.46252250e+00
 -4.26894817e+00 -8.57946623e-01  5.46252250e+00 -4.26894817e+00 -8.57946623e-01
  5.46252250e+00 -4.26894817e+00 -8.57946623e-01  5.46252250e+00 -4.26894817e+00
 -8.57946623e-01  5.46252250e+00 -4.26894817e+00 -8.57946623e-01  5.46252250e+00
 -5.77592623e-01 -1.83130811e+00  4.19571212e+00 -5.77592623e-01 -1.83130811e+00
  4.19571212e+00 -3.25759417e+00  5.61419851e-01  7.61183073e+00 -3.25759417e+00
  5.61419851e-01  7.61183073e+00 -3.25759417e+00  5.61419851e-01  7.61183073e+00
 -3.25759417e+00  5.61419851e-01  7.61183073e+00 -3.25759417e+00  5.61419851e-01
  7.61183073e+00 -3.25759417e+00  5.61419851e-01  7.61183073e+00 -3.25759417e+00
  5.61419851e-01  7.61183073e+00 -3.25759417e+00  5.61419851e-01  7.61183073e+00
 -4.98401029e+00 -2.52538311e+00  6.10801444e+00 -4.98401029e+00 -2.52538311e+00
  6.10801444e+00 -3.30032543e-03 -2.78723492e-01 -8.59838490e+00 -3.30032543e-03
 -2.78723492e-01 -8.59838490e+00  5.07141126e+00 -2.41263193e-01 -9.53855376e+00
  5.07141126e+00 -2.41263193e-01 -9.53855376e+00 -5.23508358e+00  8.27424838e-01
  9.69926532e+00 -5.23508358e+00  8.27424838e-01  9.69926532e+00 -5.23508358e+00
  8.27424838e-01  9.69926532e+00 -5.23508358e+00  8.27424838e-01  9.69926532e+00
 -5.23508358e+00  8.27424838e-01  9.69926532e+00 -5.23508358e+00  8.27424838e-01
  9.69926532e+00 -5.23508358e+00  8.27424838e-01  9.69926532e+00 -5.23508358e+00
  8.27424838e-01  9.69926532e+00 -2.70448896e+00  2.44749050e+00  6.95529445e+00
 -2.70448896e+00  2.44749050e+00  6.95529445e+00 -1.52799442e+00 -3.26986725e-01
  8.39008702e+00 -1.52799442e+00 -3.26986725e-01  8.39008702e+00 -6.92762767e+00
  1.78249289e+00  8.98566164e+00 -6.92762767e+00  1.78249289e+00  8.98566164e+00
 -4.48010967e+00  1.92101717e+00  1.12884899e+01 -4.48010967e+00  1.92101717e+00
  1.12884899e+01 -5.80691015e+00 -1.02829082e+00  1.04319152e+01 -5.80691015e+00
 -1.02829082e+00  1.04319152e+01
Total Energy                               R     -6.356069329174341e+02
Alpha Orbital Energies                     R   N=         319
 -1.92214153e+01 -1.43232540e+01 -1.02533013e+01 -1.02472745e+01 -1.02190335e+01
 -1.02118374e+01 -1.02027241e+01 -1.02018131e+01 -1.02002733e+01 -1.01995088e+01
 -1.01968208e+01 -1.01964300e+01 -1.01859990e+01 -1.01810670e+01 -1.01785642e+01
 -1.11357718e+00 -9.09273907e-01 -8.63372158e-01 -8.06142170e-01 -7.91087317e-01
 -7.58271499e-01 -7.34327880e-01 -7.16273572e-01 -6.90459540e-01 -6.30204799e-01
 -6.12430565e-01 -6.06655811e-01 -5.90928309e-01 -5.67793498e-01 -5.25991997e-01
 -4.99138231e-01 -4.94923830e-01 -4.71937913e-01 -4.63252604e-01 -4.58836309e-01
 -4.51505952e-01 -4.42432649e-01 -4.33385167e-01 -4.32014631e-01 -4.13318412e-01
 -4.03467189e-01 -3.94501763e-01 -3.81468353e-01 -3.72581822e-01 -3.69916923e-01
 -3.62790819e-01 -3.58085301e-01 -3.48656953e-01 -3.41395062e-01 -3.35411788e-01
 -3.27078561e-01 -2.99125863e-01 -2.39350483e-01 -2.28554939e-01 -2.25338514e-01
 -2.99920905e-02 -1.65715444e-03  4.62362478e-03  1.12996770e-02  1.44666177e-02
  2.02073220e-02  2.28666364e-02  3.01798947e-02  3.10650744e-02  3.71827555e-02
  4.12345001e-02  4.74161256e-02  4.80228096e-02  5.49054651e-02  5.86116039e-02
  6.60341234e-02  6.95396678e-02  7.39441630e-02  8.06340933e-02  8.67097410e-02