Generated by Psi4
     FORCE                           RHF                       TESTBAS
Number of atoms                            I               29
Charge                                     I                0
Multiplicity                               I                1
Number of electrons                        I              102
Number of alpha electrons                  I               51
Number of beta electrons                   I               51
Number of basis functions                  I              296
Number of independent functions            I              296
Atomic numbers                             I   N=          29
           6           6           6           6           6           6
           1           1           6           6           8           1
           6           6           1           1           6           1
           1           1           7           1           6           1
           1           1           1           1           1
Nuclear charges                            R   N=          29
  6.00000000e+00  6.00000000e+00  6.00000000e+00  6.00000000e+00  6.00000000e+00
  6.00000000e+00  1.00000000e+00  1.00000000e+00  6.00000000e+00  6.00000000e+00
  8.00000000e+00  1.00000000e+00  6.00000000e+00  6.00000000e+00  1.00000000e+00
  1.00000000e+00  6.00000000e+00  1.00000000e+00  1.00000000e+00  1.00000000e+00
  7.00000000e+00  1.00000000e+00  6.00000000e+00  1.00000000e+00  1.00000000e+00
  1.00000000e+00  1.00000000e+00  1.00000000e+00  1.00000000e+00
Current cartesian coordinates              R   N=          87
 -5.08485451e-01  8.86005250e-01  4.66210365e-01  2.02721969e+00  1.11182188e+00
  1.29431250e+00  4.07435188e+00  9.12203352e-01 -3.53165986e-01  3.50557353e+00
  4.81518870e-01 -2.88122080e+00  1.02246034e+00  2.56060451e-01 -3.80029781e+00
 -1.00069913e+00  4.62536398e-01 -2.09327326e+00  6.01194382e+00  1.09554163e+00
  2.95905209e-01 -2.94020025e+00  3.02727279e-01 -2.75477677e+00  1.28079586e+00
 -1.55970859e-01 -6.48793935e+00  3.80116610e+00 -1.49383022e-01 -6.96892762e+00
  5.21003756e+00  2.32476348e-01 -4.82038857e+00  2.39111661e+00  1.46844657e+00
  3.28566185e+00 -2.64694686e+00  1.09885124e+00  2.35994123e+00 -2.95333999e+00
 -1.22879423e+00  4.11209244e+00 -4.44891382e+00  1.39677098e+00  1.37981232e+00
 -2.33647633e+00  2.77576249e+00  3.53870747e+00 -3.80395919e+00 -3.56968256e+00
  2.64130968e+00 -5.68105292e+00 -3.26138366e+00  1.81550495e+00 -3.90769432e+00
 -5.22935732e+00  3.88229498e+00 -2.48116500e+00 -4.00897092e+00  1.11380286e+00
 -4.82217271e+00 -6.68585380e-01  6.08941999e+00 -1.08508965e+00 -1.63862519e+00
  4.96503078e+00 -3.90237188e+00  8.89161626e-01  8.17556323e+00 -5.50170975e+00
 -2.32315861e+00  6.79497861e+00 -3.54193532e+00  2.82226953e+00  7.53021898e+00
 -2.14393000e+00  1.69174384e-01  9.04944516e+00 -5.36309299e+00  9.93124975e-01
  9.63767599e+00 -2.09602281e-01 -4.19060144e-01 -7.86222740e+00  4.88596288e+00
 -3.82568692e-01 -8.68215761e+00
Integer atomic weights                     I   N=          29
          12          12          12          12          12          12
           1           1          12          12          15           1
          12          12           1           1          12           1
           1           1          14           1          12           1
           1           1           1           1           1
Real atomic weights                        R   N=          29
  1.20000000e+01  1.20000000e+01  1.20000000e+01  1.20000000e+01  1.20000000e+01
  1.20000000e+01  1.00782503e+00  1.00782503e+00  1.20000000e+01  1.20000000e+01
  1.59949146e+01  1.00782503e+00  1.20000000e+01  1.20000000e+01  1.00782503e+00
  1.00782503e+00  1.20000000e+01  1.00782503e+00  1.00782503e+00  1.00782503e+00
  1.40030740e+01  1.00782503e+00  1.20000000e+01  1.00782503e+00  1.00782503e+00
  1.00782503e+00  1.00782503e+00  1.00782503e+00  1.00782503e+00
Number of primitive shells                 I              298
Number of contracted shells                I              142
Pure/Cartesian d shells                    I                1
Pure/Cartesian f shells                    I                1
Highest angular momentum                   I                2
Largest degree of contraction              I                6
Shell types                                I   N=         142
           0           0           1           0           1           2
           0           1           0           0           1           0
           1           2           0           1           0           0
           1           0           1           2           0           1
           0           0           1           0           1           2
           0           1           0           0           1           0
           1           2           0           1           0           0
           1           0           1           2           0           1
           0           0           0           0           0           0
           1           0           1           2           0           1
           0           0           1           0           1           2
           0           1           0           0           1           0
           1           2           0           1           0           0
           0           0           1           0           1           2
           0           1           0           0           1           0
           1           2           0           1           0           0
           0           0           0           0           1           0
           1           2           0           1           0           0
           0           0           0           0           0           0
           1           0           1           2           0           1
           0           0           0           0           1           0
           1           2           0           1           0           0
           0           0           0           0           0           0
           0           0           0           0
Number of primitives per shell             I   N=         142
           6           3           3           1           1           1
           1           1           6           3           3           1
           1           1           1           1           6           3
           3           1           1           1           1           1
           6           3           3           1           1           1
           1           1           6           3           3           1
           1           1           1           1           6           3
           3           1           1           1           1           1
           3           1           3           1           6           3
           3           1           1           1           1           1
           6           3           3           1           1           1
           1           1           6           3           3           1
           1           1           1           1           3           1
           6           3           3           1           1           1
           1           1           6           3           3           1
           1           1           1           1           3           1
           3           1           6           3           3           1
           1           1           1           1           3           1
           3           1           3           1           6           3
           3           1           1           1           1           1
           3           1           6           3           3           1
           1           1           1           1           3           1
           3           1           3           1           3           1
           3           1           3           1
Shell to atom map                          I   N=         142
           1           1           1           1           1           1
           1           1           2           2           2           2
           2           2           2           2           3           3
           3           3           3           3           3           3
           4           4           4           4           4           4
           4           4           5           5           5           5
           5           5           5           5           6           6
           6           6           6           6           6           6
           7           7           8           8           9           9
           9           9           9           9           9           9
          10          10          10          10          10          10
          10          10          11          11          11          11
          11          11          11          11          12          12
          13          13          13          13          13          13
          13          13          14          14          14          14
          14          14          14          14          15          15
          16          16          17          17          17          17
          17          17          17          17          18          18
          19          19          20          20          21          21
          21          21          21          21          21          21
          22          22          23          23          23          23
          23          23          23          23          24          24
          25          25          26          26          27          27
          28          28          29          29
Primitive exponents                        R   N=         298
  3.04752490e+03  4.57369510e+02  1.03948690e+02  2.92101550e+01  9.28666300e+00
  3.16392700e+00  7.86827240e+00  1.88128850e+00  5.44249300e-01  7.86827240e+00
  1.88128850e+00  5.44249300e-01  1.68714400e-01  1.68714400e-01  8.00000000e-01
  4.38000000e-02  4.38000000e-02  3.04752490e+03  4.57369510e+02  1.03948690e+02
  2.92101550e+01  9.28666300e+00  3.16392700e+00  7.86827240e+00  1.88128850e+00
  5.44249300e-01  7.86827240e+00  1.88128850e+00  5.44249300e-01  1.68714400e-01
  1.68714400e-01  8.00000000e-01  4.38000000e-02  4.38000000e-02  3.04752490e+03
  4.57369510e+02  1.03948690e+02  2.92101550e+01  9.28666300e+00  3.16392700e+00
  7.86827240e+00  1.88128850e+00  5.44249300e-01  7.86827240e+00  1.88128850e+00
  5.44249300e-01  1.68714400e-01  1.68714400e-01  8.00000000e-01  4.38000000e-02
  4.38000000e-02  3.04752490e+03  4.57369510e+02  1.03948690e+02  2.92101550e+01
  9.28666300e+00  3.16392700e+00  7.86827240e+00  1.88128850e+00  5.44249300e-01
  7.86827240e+00  1.88128850e+00  5.44249300e-01  1.68714400e-01  1.68714400e-01
  8.00000000e-01  4.38000000e-02  4.38000000e-02  3.04752490e+03  4.57369510e+02
  1.03948690e+02  2.92101550e+01  9.28666300e+00  3.16392700e+00  7.86827240e+00
  1.88128850e+00  5.44249300e-01  7.86827240e+00  1.88128850e+00  5.44249300e-01
  1.68714400e-01  1.68714400e-01  8.00000000e-01  4.38000000e-02  4.38000000e-02
  3.04752490e+03  4.57369510e+02  1.03948690e+02  2.92101550e+01  9.28666300e+00
  3.16392700e+00  7.86827240e+00  1.88128850e+00  5.44249300e-01  7.86827240e+00
  1.88128850e+00  5.44249300e-01  1.68714400e-01  1.68714400e-01  8.00000000e-01
  4.38000000e-02  4.38000000e-02  1.87311370e+01  2.82539370e+00  6.40121700e-01
  1.61277800e-01  1.87311370e+01  2.82539370e+00  6.40121700e-01  1.61277800e-01
  3.04752490e+03  4.57369510e+02  1.03948690e+02  2.92101550e+01  9.28666300e+00
  3.16392700e+00  7.86827240e+00  1.88128850e+00  5.44249300e-01  7.86827240e+00
  1.88128850e+00  5.44249300e-01  1.68714400e-01  1.68714400e-01  8.00000000e-01
  4.38000000e-02  4.38000000e-02  3.04752490e+03  4.57369510e+02  1.03948690e+02
  2.92101550e+01  9.28666300e+00  3.16392700e+00  7.86827240e+00  1.88128850e+00
  5.44249300e-01  7.86827240e+00  1.88128850e+00  5.44249300e-01  1.68714400e-01
  1.68714400e-01  8.00000000e-01  4.38000000e-02  4.38000000e-02  5.48467170e+03
  8.25234950e+02  1.88046960e+02  5.29645000e+01  1.68975700e+01  5.79963530e+00
  1.55396160e+01  3.59993360e+00  1.01376180e+00  1.55396160e+01  3.59993360e+00
  1.01376180e+00  2.70005800e-01  2.70005800e-01  8.00000000e-01  8.45000000e-02
  8.45000000e-02  1.87311370e+01  2.82539370e+00  6.40121700e-01  1.61277800e-01
  3.04752490e+03  4.57369510e+02  1.03948690e+02  2.92101550e+01  9.28666300e+00
  3.16392700e+00  7.86827240e+00  1.88128850e+00  5.44249300e-01  7.86827240e+00
  1.88128850e+00  5.44249300e-01  1.68714400e-01  1.68714400e-01  8.00000000e-01
  4.38000000e-02  4.38000000e-02  3.04752490e+03  4.57369510e+02  1.03948690e+02
  2.92101550e+01  9.28666300e+00  3.16392700e+00  7.86827240e+00  1.88128850e+00
  5.44249300e-01  7.86827240e+00  1.88128850e+00  5.44249300e-01  1.68714400e-01
  1.68714400e-01  8.00000000e-01  4.38000000e-02  4.38000000e-02  1.87311370e+01
  2.82539370e+00  6.40121700e-01  1.61277800e-01  1.87311370e+01  2.82539370e+00
  6.40121700e-01  1.61277800e-01  3.04752490e+03  4.57369510e+02  1.03948690e+02
  2.92101550e+01  9.28666300e+00  3.16392700e+00  7.86827240e+00  1.88128850e+00
  5.44249300e-01  7.86827240e+00  1.88128850e+00  5.44249300e-01  1.68714400e-01
  1.68714400e-01  8.00000000e-01  4.38000000e-02  4.38000000e-02  1.87311370e+01
  2.82539370e+00  6.40121700e-01  1.61277800e-01  1.87311370e+01  2.82539370e+00
  6.40121700e-01  1.61277800e-01  1.87311370e+01  2.82539370e+00  6.40121700e-01
  1.61277800e-01  4.17351100e+03  6.27457900e+02  1.42902100e+02  4.02343300e+01
  1.28202100e+01  4.39043700e+00  1.16263580e+01  2.71628000e+00  7.72218000e-01
  1.16263580e+01  2.71628000e+00  7.72218000e-01  2.12031300e-01  2.12031300e-01
  8.00000000e-01  6.39000000e-02  6.39000000e-02  1.87311370e+01  2.82539370e+00
  6.40121700e-01  1.61277800e-01  3.04752490e+03  4.57369510e+02  1.03948690e+02
  2.92101550e+01  9.28666300e+00  3.16392700e+00  7.86827240e+00  1.88128850e+00
  5.44249300e-01  7.86827240e+00  1.88128850e+00  5.44249300e-01  1.68714400e-01
  1.68714400e-01  8.00000000e-01  4.38000000e-02  4.38000000e-02  1.87311370e+01
  2.82539370e+00  6.40121700e-01  1.61277800e-01  1.87311370e+01  2.82539370e+00
  6.40121700e-01  1.61277800e-01  1.87311370e+01  2.82539370e+00  6.40121700e-01
  1.61277800e-01  1.87311370e+01  2.82539370e+00  6.40121700e-01  1.61277800e-01
  1.87311370e+01  2.82539370e+00  6.40121700e-01  1.61277800e-01  1.87311370e+01
  2.82539370e+00  6.40121700e-01  1.61277800e-01
Contraction coefficients                   R   N=         298
  1.83470016e-03  1.40373012e-02  6.88426061e-02  2.32184421e-01  4.67941342e-01
  3.62312032e-01 -1.19332409e-01 -1.60854212e-01  1.14345648e+00  6.89990956e-02
  3.16423980e-01  7.44308252e-01  1.00000000e+00  1.00000000e+00  1.00000000e+00
  1.00000000e+00  1.00000000e+00  1.83470016e-03  1.40373012e-02  6.88426061e-02
  2.32184421e-01  4.67941342e-01  3.62312032e-01 -1.19332409e-01 -1.60854212e-01
  1.14345648e+00  6.89990956e-02  3.16423980e-01  7.44308252e-01  1.00000000e+00
  1.00000000e+00  1.00000000e+00  1.00000000e+00  1.00000000e+00  1.83470016e-03
  1.40373012e-02  6.88426061e-02  2.32184421e-01  4.67941342e-01  3.62312032e-01
 -1.19332409e-01 -1.60854212e-01  1.14345648e+00  6.89990956e-02  3.16423980e-01
  7.44308252e-01  1.00000000e+00  1.00000000e+00  1.00000000e+00  1.00000000e+00
  1.00000000e+00  1.83470016e-03  1.40373012e-02  6.88426061e-02  2.32184421e-01
  4.67941342e-01  3.62312032e-01 -1.19332409e-01 -1.60854212e-01  1.14345648e+00
  6.89990956e-02  3.16423980e-01  7.44308252e-01  1.00000000e+00  1.00000000e+00
  1.00000000e+00  1.00000000e+00  1.00000000e+00  1.83470016e-03  1.40373012e-02
  6.88426061e-02  2.32184421e-01  4.67941342e-01  3.62312032e-01 -1.19332409e-01
 -1.60854212e-01  1.14345648e+00  6.89990956e-02  3.16423980e-01  7.44308252e-01
  1.00000000e+00  1.00000000e+00  1.00000000e+00  1.00000000e+00  1.00000000e+00
  1.83470016e-03  1.40373012e-02  6.88426061e-02  2.32184421e-01  4.67941342e-01
  3.62312032e-01 -1.19332409e-01 -1.60854212e-01  1.14345648e+00  6.89990956e-02
  3.16423980e-01  7.44308252e-01  1.00000000e+00  1.00000000e+00  1.00000000e+00
  1.00000000e+00  1.00000000e+00  3.34945995e-02  2.34726947e-01  8.13757318e-01
  1.00000000e+00  3.34945995e-02  2.34726947e-01  8.13757318e-01  1.00000000e+00
  1.83470016e-03  1.40373012e-02  6.88426061e-02  2.32184421e-01  4.67941342e-01
  3.62312032e-01 -1.19332409e-01 -1.60854212e-01  1.14345648e+00  6.89990956e-02
  3.16423980e-01  7.44308252e-01  1.00000000e+00  1.00000000e+00  1.00000000e+00
  1.00000000e+00  1.00000000e+00  1.83470016e-03  1.40373012e-02  6.88426061e-02
  2.32184421e-01  4.67941342e-01  3.62312032e-01 -1.19332409e-01 -1.60854212e-01
  1.14345648e+00  6.89990956e-02  3.16423980e-01  7.44308252e-01  1.00000000e+00
  1.00000000e+00  1.00000000e+00  1.00000000e+00  1.00000000e+00  1.83109981e-03
  1.39500985e-02  6.84450927e-02  2.32714275e-01  4.70192950e-01  3.58520862e-01
 -1.10777504e-01 -1.48026305e-01  1.13076704e+00  7.08742995e-02  3.39752798e-01
  7.27158595e-01  1.00000000e+00  1.00000000e+00  1.00000000e+00  1.00000000e+00
  1.00000000e+00  3.34945995e-02  2.34726947e-01  8.13757318e-01  1.00000000e+00
  1.83470016e-03  1.40373012e-02  6.88426061e-02  2.32184421e-01  4.67941342e-01
  3.62312032e-01 -1.19332409e-01 -1.60854212e-01  1.14345648e+00  6.89990956e-02
  3.16423980e-01  7.44308252e-01  1.00000000e+00  1.00000000e+00  1.00000000e+00
  1.00000000e+00  1.00000000e+00  1.83470016e-03  1.40373012e-02  6.88426061e-02
  2.32184421e-01  4.67941342e-01  3.62312032e-01 -1.19332409e-01 -1.60854212e-01
  1.14345648e+00  6.89990956e-02  3.16423980e-01  7.44308252e-01  1.00000000e+00
  1.00000000e+00  1.00000000e+00  1.00000000e+00  1.00000000e+00  3.34945995e-02
  2.34726947e-01  8.13757318e-01  1.00000000e+00  3.34945995e-02  2.34726947e-01
  8.13757318e-01  1.00000000e+00  1.83470016e-03  1.40373012e-02  6.88426061e-02
  2.32184421e-01  4.67941342e-01  3.62312032e-01 -1.19332409e-01 -1.60854212e-01
  1.14345648e+00  6.89990956e-02  3.16423980e-01  7.44308252e-01  1.00000000e+00
  1.00000000e+00  1.00000000e+00  1.00000000e+00  1.00000000e+00  3.34945995e-02
  2.34726947e-01  8.13757318e-01  1.00000000e+00  3.34945995e-02  2.34726947e-01
  8.13757318e-01  1.00000000e+00  3.34945995e-02  2.34726947e-01  8.13757318e-01
  1.00000000e+00  1.83479944e-03  1.39949958e-02  6.85869792e-02  2.32240930e-01
  4.69069858e-01  3.60454891e-01 -1.14961023e-01 -1.69118034e-01  1.14585223e+00
  6.75800232e-02  3.23907111e-01  7.40895255e-01  1.00000000e+00  1.00000000e+00
  1.00000000e+00  1.00000000e+00  1.00000000e+00  3.34945995e-02  2.34726947e-01
  8.13757318e-01  1.00000000e+00  1.83470016e-03  1.40373012e-02  6.88426061e-02
  2.32184421e-01  4.67941342e-01  3.62312032e-01 -1.19332409e-01 -1.60854212e-01
  1.14345648e+00  6.89990956e-02  3.16423980e-01  7.44308252e-01  1.00000000e+00
  1.00000000e+00  1.00000000e+00  1.00000000e+00  1.00000000e+00  3.34945995e-02
  2.34726947e-01  8.13757318e-01  1.00000000e+00  3.34945995e-02  2.34726947e-01
  8.13757318e-01  1.00000000e+00  3.34945995e-02  2.34726947e-01  8.13757318e-01
  1.00000000e+00  3.34945995e-02  2.34726947e-01  8.13757318e-01  1.00000000e+00
  3.34945995e-02  2.34726947e-01  8.13757318e-01  1.00000000e+00  3.34945995e-02
  2.34726947e-01  8.13757318e-01  1.00000000e+00
Coordinates of each shell                  R   N=         426
 -5.08485451e-01  8.86005250e-01  4.66210365e-01 -5.08485451e-01  8.86005250e-01
  4.66210365e-01 -5.08485451e-01  8.86005250e-01  4.66210365e-01 -5.08485451e-01
  8.86005250e-01  4.66210365e-01 -5.08485451e-01  8.86005250e-01  4.66210365e-01
 -5.08485451e-01  8.86005250e-01  4.66210365e-01 -5.08485451e-01  8.86005250e-01
  4.66210365e-01 -5.08485451e-01  8.86005250e-01  4.66210365e-01  2.02721969e+00
  1.11182188e+00  1.29431250e+00  2.02721969e+00  1.11182188e+00  1.29431250e+00
  2.02721969e+00  1.11182188e+00  1.29431250e+00  2.02721969e+00  1.11182188e+00
  1.29431250e+00  2.02721969e+00  1.11182188e+00  1.29431250e+00  2.02721969e+00
  1.11182188e+00  1.29431250e+00  2.02721969e+00  1.11182188e+00  1.29431250e+00
  2.02721969e+00  1.11182188e+00  1.29431250e+00  4.07435188e+00  9.12203352e-01
 -3.53165986e-01  4.07435188e+00  9.12203352e-01 -3.53165986e-01  4.07435188e+00
  9.12203352e-01 -3.53165986e-01  4.07435188e+00  9.12203352e-01 -3.53165986e-01
  4.07435188e+00  9.12203352e-01 -3.53165986e-01  4.07435188e+00  9.12203352e-01
 -3.53165986e-01  4.07435188e+00  9.12203352e-01 -3.53165986e-01  4.07435188e+00
  9.12203352e-01 -3.53165986e-01  3.50557353e+00  4.81518870e-01 -2.88122080e+00
  3.50557353e+00  4.81518870e-01 -2.88122080e+00  3.50557353e+00  4.81518870e-01
 -2.88122080e+00  3.50557353e+00  4.81518870e-01 -2.88122080e+00  3.50557353e+00
  4.81518870e-01 -2.88122080e+00  3.50557353e+00  4.81518870e-01 -2.88122080e+00
  3.50557353e+00  4.81518870e-01 -2.88122080e+00  3.50557353e+00  4.81518870e-01
 -2.88122080e+00  1.02246034e+00  2.56060451e-01 -3.80029781e+00  1.02246034e+00
  2.56060451e-01 -3.80029781e+00  1.02246034e+00  2.56060451e-01 -3.80029781e+00
  1.02246034e+00  2.56060451e-01 -3.80029781e+00  1.02246034e+00  2.56060451e-01
 -3.80029781e+00  1.02246034e+00  2.56060451e-01 -3.80029781e+00  1.02246034e+00
  2.56060451e-01 -3.80029781e+00  1.02246034e+00  2.56060451e-01 -3.80029781e+00
 -1.00069913e+00  4.62536398e-01 -2.09327326e+00 -1.00069913e+00  4.62536398e-01
 -2.09327326e+00 -1.00069913e+00  4.62536398e-01 -2.09327326e+00 -1.00069913e+00
  4.62536398e-01 -2.09327326e+00 -1.00069913e+00  4.62536398e-01 -2.09327326e+00
 -1.00069913e+00  4.62536398e-01 -2.09327326e+00 -1.00069913e+00  4.62536398e-01
 -2.09327326e+00 -1.00069913e+00  4.62536398e-01 -2.09327326e+00  6.01194382e+00
  1.09554163e+00  2.95905209e-01  6.01194382e+00  1.09554163e+00  2.95905209e-01
 -2.94020025e+00  3.02727279e-01 -2.75477677e+00 -2.94020025e+00  3.02727279e-01
 -2.75477677e+00  1.28079586e+00 -1.55970859e-01 -6.48793935e+00  1.28079586e+00
 -1.55970859e-01 -6.48793935e+00  1.28079586e+00 -1.55970859e-01 -6.48793935e+00
  1.28079586e+00 -1.55970859e-01 -6.48793935e+00  1.28079586e+00 -1.55970859e-01
 -6.48793935e+00  1.28079586e+00 -1.55970859e-01 -6.48793935e+00  1.28079586e+00
 -1.55970859e-01 -6.48793935e+00  1.28079586e+00 -1.55970859e-01 -6.48793935e+00
  3.80116610e+00 -1.49383022e-01 -6.96892762e+00  3.80116610e+00 -1.49383022e-01
 -6.96892762e+00  3.80116610e+00 -1.49383022e-01 -6.96892762e+00  3.80116610e+00
 -1.49383022e-01 -6.96892762e+00  3.80116610e+00 -1.49383022e-01 -6.96892762e+00
  3.80116610e+00 -1.49383022e-01 -6.96892762e+00  3.80116610e+00 -1.49383022e-01
 -6.96892762e+00  3.80116610e+00 -1.49383022e-01 -6.96892762e+00  5.21003756e+00
  2.32476348e-01 -4.82038857e+00  5.21003756e+00  2.32476348e-01 -4.82038857e+00
  5.21003756e+00  2.32476348e-01 -4.82038857e+00  5.21003756e+00  2.32476348e-01
 -4.82038857e+00  5.21003756e+00  2.32476348e-01 -4.82038857e+00  5.21003756e+00
  2.32476348e-01 -4.82038857e+00  5.21003756e+00  2.32476348e-01 -4.82038857e+00
  5.21003756e+00  2.32476348e-01 -4.82038857e+00  2.39111661e+00  1.46844657e+00
  3.28566185e+00  2.39111661e+00  1.46844657e+00  3.28566185e+00 -2.64694686e+00
  1.09885124e+00  2.35994123e+00 -2.64694686e+00  1.09885124e+00  2.35994123e+00
 -2.64694686e+00  1.09885124e+00  2.35994123e+00 -2.64694686e+00  1.09885124e+00
  2.35994123e+00 -2.64694686e+00  1.09885124e+00  2.35994123e+00 -2.64694686e+00
  1.09885124e+00  2.35994123e+00 -2.64694686e+00  1.09885124e+00  2.35994123e+00
 -2.64694686e+00  1.09885124e+00  2.35994123e+00 -2.95333999e+00 -1.22879423e+00
  4.11209244e+00 -2.95333999e+00 -1.22879423e+00  4.11209244e+00 -2.95333999e+00
 -1.22879423e+00  4.11209244e+00 -2.95333999e+00 -1.22879423e+00  4.11209244e+00
 -2.95333999e+00 -1.22879423e+00  4.11209244e+00 -2.95333999e+00 -1.22879423e+00
  4.11209244e+00 -2.95333999e+00 -1.22879423e+00  4.11209244e+00 -2.95333999e+00
 -1.22879423e+00  4.11209244e+00 -4.44891382e+00  1.39677098e+00  1.37981232e+00
 -4.44891382e+00  1.39677098e+00  1.37981232e+00 -2.33647633e+00  2.77576249e+00
  3.53870747e+00 -2.33647633e+00  2.77576249e+00  3.53870747e+00 -3.80395919e+00
 -3.56968256e+00  2.64130968e+00 -3.80395919e+00 -3.56968256e+00  2.64130968e+00
 -3.80395919e+00 -3.56968256e+00  2.64130968e+00 -3.80395919e+00 -3.56968256e+00
  2.64130968e+00 -3.80395919e+00 -3.56968256e+00  2.64130968e+00 -3.80395919e+00
 -3.56968256e+00  2.64130968e+00 -3.80395919e+00 -3.56968256e+00  2.64130968e+00
 -3.80395919e+00 -3.56968256e+00  2.64130968e+00 -5.68105292e+00 -3.26138366e+00
  1.81550495e+00 -5.68105292e+00 -3.26138366e+00  1.81550495e+00 -3.90769432e+00
 -5.22935732e+00  3.88229498e+00 -3.90769432e+00 -5.22935732e+00  3.88229498e+00
 -2.48116500e+00 -4.00897092e+00  1.11380286e+00 -2.48116500e+00 -4.00897092e+00
  1.11380286e+00 -4.82217271e+00 -6.68585380e-01  6.08941999e+00 -4.82217271e+00
 -6.68585380e-01  6.08941999e+00 -4.82217271e+00 -6.68585380e-01  6.08941999e+00
 -4.82217271e+00 -6.68585380e-01  6.08941999e+00 -4.82217271e+00 -6.68585380e-01
  6.08941999e+00 -4.82217271e+00 -6.68585380e-01  6.08941999e+00 -4.82217271e+00
 -6.68585380e-01  6.08941999e+00 -4.82217271e+00 -6.68585380e-01  6.08941999e+00
 -1.08508965e+00 -1.63862519e+00  4.96503078e+00 -1.08508965e+00 -1.63862519e+00
  4.96503078e+00 -3.90237188e+00  8.89161626e-01  8.17556323e+00 -3.90237188e+00
  8.89161626e-01  8.17556323e+00 -3.90237188e+00  8.89161626e-01  8.17556323e+00
 -3.90237188e+00  8.89161626e-01  8.17556323e+00 -3.90237188e+00  8.89161626e-01
  8.17556323e+00 -3.90237188e+00  8.89161626e-01  8.17556323e+00 -3.90237188e+00
  8.89161626e-01  8.17556323e+00 -3.90237188e+00  8.89161626e-01  8.17556323e+00
 -5.50170975e+00 -2.32315861e+00  6.79497861e+00 -5.50170975e+00 -2.32315861e+00
  6.79497861e+00 -3.54193532e+00  2.82226953e+00  7.53021898e+00 -3.54193532e+00
  2.82226953e+00  7.53021898e+00 -2.14393000e+00  1.69174384e-01  9.04944516e+00
 -2.14393000e+00  1.69174384e-01  9.04944516e+00 -5.36309299e+00  9.93124975e-01
  9.63767599e+00 -5.36309299e+00  9.93124975e-01  9.63767599e+00 -2.09602281e-01
 -4.19060144e-01 -7.86222740e+00 -2.09602281e-01 -4.19060144e-01 -7.86222740e+00
  4.88596288e+00 -3.82568692e-01 -8.68215761e+00  4.88596288e+00 -3.82568692e-01
 -8.68215761e+00
Total Energy                               R     -5.962894597508636e+02
Alpha Orbital Energies                     R   N=         296
 -1.92215204e+01 -1.43256786e+01 -1.02534074e+01 -1.02474026e+01 -1.02194793e+01
 -1.02066585e+01 -1.02028487e+01 -1.02019545e+01 -1.02005274e+01 -1.01996111e+01
 -1.01969634e+01 -1.01965900e+01 -1.01864447e+01 -1.01786800e+01 -1.11368628e+00
 -9.07880826e-01 -8.63446470e-01 -8.05971631e-01 -7.87569348e-01 -7.47312062e-01
 -7.34461122e-01 -6.91850565e-01 -6.61594096e-01 -6.30139176e-01 -6.06733028e-01
 -5.90878271e-01 -5.67239572e-01 -5.26049283e-01 -4.99375229e-01 -4.94665299e-01
 -4.72426643e-01 -4.60656219e-01 -4.55577449e-01 -4.50645673e-01 -4.40009748e-01
 -4.35567708e-01 -4.16869235e-01 -4.13168240e-01 -3.94796688e-01 -3.87024589e-01
 -3.81944973e-01 -3.71590933e-01 -3.64664842e-01 -3.52461500e-01 -3.42803000e-01
 -3.36807798e-01 -3.31606572e-01 -2.99254029e-01 -2.39460091e-01 -2.28775106e-01
 -2.25697800e-01 -3.01131028e-02 -1.78358493e-03  3.64747463e-03  1.09589003e-02
  1.57748791e-02  2.03936230e-02  2.40845167e-02  3.12091920e-02  3.28383785e-02
  4.10083358e-02  4.27683330e-02  4.80572761e-02  5.10587284e-02  5.76924708e-02
  6.87732751e-02  7.04585081e-02  7.51385387e-02  7.85138933e-02  8.36324983e-02
  9.25902632e-02  9.69177889e-02  9.98837523e-02  1.00851883e-01  1.07400943e-01
  1.12507813e-01  1.20623778e-01  1.28850868e-01  1.34425571e-01  1.42446732e-01
  1.48146905e-01  1.52781782e-01  1.56754146e-01  1.59126547e-01  1.62222595e-01
  1.63677779e-01  1.69081623e-01  1.71695002e-01  1.78892746e-01  1.84280588e-01
  1.86948421e-01  1.92162274e-01  1.95207575e-01  2.00174522e-01  2.03188477e-01
  2.11443918e-01  2.12959537e-01  2.17863653e-01  2.22187654e-01  2.23225971e-01
  2.24220540e-01  2.30265202e-01  2.35214995e-01  2.36979441e-01  2.46024549e-01
  2.47365704e-01  2.49236315e-01  2.52404138e-01  2.59709438e-01  2.60394435e-01
  2.69011117e-01  2.77383474e-01  2.81564282e-01  2.87788181e-01  2.91404532e-01
  2.99097972e-01  3.02098357e-01  3.06587219e-01  3.10392646e-01  3.12405308e-01
  3.19314076e-01  3.25920521e-01  3.36108369e-01  3.42756947e-01  3.45109082e-01
  3.51692933e-01  3.60170134e-01  3.68764524e-01  3.69286175e-01  3.78223061e-01
  3.81005952e-01  3.85497380e-01  4.02090893e-01  4.20995707e-01  4.34131076e-01
  4.39247548e-01  4.56310362e-01  4.85841071e-01  5.12578746e-01  5.83089667e-01
  6.13410149e-01  6.41000240e-01  6.58162138e-01  6.66942489e-01  6.84044969e-01
  6.90521545e-01  6.95000899e-01  7.01430518e-01  7.08296816e-01  7.11875767e-01
  7.18273506e-01  7.27113788e-01  7.32273160e-01  7.51141544e-01  7.54458645e-01
  7.67658725e-01  7.75330862e-01  7.80653849e-01  7.91163927e-01  7.98535711e-01
  8.05114676e-01  8.14827817e-01  8.23736027e-01  8.49213166e-01  8.71390926e-01
  8.92567132e-01  8.98592022e-01  9.01065697e-01  9.15443112e-01  9.30241441e-01
  9.37848252e-01  9.46062805e-01  9.58069155e-01  9.69430457e-01  9.75520995e-01
  9.99346652e-01  1.01069367e+00  1.02317172e+00  1.03096709e+00  1.05868755e+00
  1.07400979e+00  1.07842780e+00  1.08516403e+00  1.09577618e+00  1.10330004e+00
  1.12107810e+00  1.14725202e+00  1.15217742e+00  1.15699880e+00  1.17023504e+00
  1.17788285e+00  1.18596947e+00  1.19752357e+00  1.21583538e+00  1.22195160e+00
  1.22536276e+00  1.23474334e+00  1.25191839e+00  1.28385932e+00  1.29321888e+00
  1.30965828e+00  1.33942397e+00  1.35754882e+00  1.36725891e+00  1.39006657e+00
  1.40585515e+00  1.41462800e+00  1.42519325e+00  1.42698715e+00  1.45476609e+00