Generated by Psi4
     FORCE                           RHF                       TESTBAS
Number of atoms                            I               40
Charge                                     I                0
Multiplicity                               I                1
Number of electrons                        I              134
Number of alpha electrons                  I               67
Number of beta electrons                   I               67
Number of basis functions                  I              386
Number of independent functions            I              386
Atomic numbers                             I   N=          40
           6           6           6           6           6           6
           7           6           6           1           1           1
           1           1           6           6           1           1
           7           6           6           1           1           8
           6           1           1           1           6           6
           1           1           1           1           1           1
           1           1           1           1
Nuclear charges                            R   N=          40
  6.00000000e+00  6.00000000e+00  6.00000000e+00  6.00000000e+00  6.00000000e+00
  6.00000000e+00  7.00000000e+00  6.00000000e+00  6.00000000e+00  1.00000000e+00
  1.00000000e+00  1.00000000e+00  1.00000000e+00  1.00000000e+00  6.00000000e+00
  6.00000000e+00  1.00000000e+00  1.00000000e+00  7.00000000e+00  6.00000000e+00
  6.00000000e+00  1.00000000e+00  1.00000000e+00  8.00000000e+00  6.00000000e+00
  1.00000000e+00  1.00000000e+00  1.00000000e+00  6.00000000e+00  6.00000000e+00
  1.00000000e+00  1.00000000e+00  1.00000000e+00  1.00000000e+00  1.00000000e+00
  1.00000000e+00  1.00000000e+00  1.00000000e+00  1.00000000e+00  1.00000000e+00
Current cartesian coordinates              R   N=         120
  8.44834235e-01 -1.79153939e+00 -1.96930742e+00  2.78977727e+00  1.99628895e+00
  5.50232638e-01  2.24491455e+00  5.23658282e-01 -1.58793128e+00  4.25473792e+00
  4.16902223e+00  2.75718255e-01  5.18834717e+00  4.90316057e+00 -2.11673068e+00
  1.00995548e+00 -2.32262753e+00 -4.50789611e+00  2.41043681e+00 -4.87088995e-01
 -5.73462827e+00  3.20464738e+00  1.28622357e+00 -3.98302409e+00  4.66796190e+00
  3.46044503e+00 -4.26254361e+00  6.32406277e+00  6.59575245e+00 -2.31785587e+00
  5.39828792e+00  4.03747517e+00 -6.09463890e+00  2.10250924e+00  1.49296569e+00
  2.41751573e+00  2.84263197e+00 -4.86622635e-01 -7.59028768e+00  2.33917398e-01
 -3.90061353e+00 -5.55353476e+00 -5.43480250e-01 -3.30506486e+00 -6.04344428e-03
 -3.08856595e+00 -2.11202483e+00  7.72296326e-01  6.59930708e-01 -3.54236686e+00
  1.66802848e+00 -9.24579885e-01 -5.21418324e+00 -7.17059354e-01 -4.41566906e+00
 -3.58557861e+00  2.72228257e+00 -7.20034179e+00 -3.40676178e+00  2.49263553e+00
 -3.44597230e+00 -2.91338444e+00  5.22099668e+00 -4.26774129e+00 -1.99086137e+00
 -9.17687290e-01 -2.78838830e+00 -1.43067440e-01  1.40818487e+00  4.70309350e+00
  5.50633362e+00  2.46325397e+00  6.18986808e+00  7.73091654e+00  2.33171733e+00
  8.10935120e+00  7.32726662e+00  1.64987518e+00  6.29200818e+00  8.45278734e+00
  4.26217123e+00  5.31375098e+00  9.16455748e+00  1.11130298e+00 -8.56912934e+00
 -4.44787580e+00  4.83101694e+00 -8.12630318e+00 -4.86708504e+00  1.56778345e-01
 -7.75700353e+00 -1.39406961e+00  2.28530306e+00 -1.38082217e+00 -2.98925945e+00
  5.19190584e+00 -4.08368805e+00 -4.25553161e+00  6.65392300e+00 -4.00072067e+00
 -9.82594203e-01  5.81839076e+00 -7.97495991e+00 -6.39588873e+00  5.22259607e+00
 -1.06095886e+01 -4.46298330e+00  4.47902625e+00 -8.24558187e+00 -3.30830499e+00
  6.52560208e+00 -7.71841307e+00 -6.88659000e+00  3.80607491e-01 -7.24071985e+00
 -4.23223829e+00 -1.60048148e+00 -1.01732876e+01 -4.63046386e+00 -6.48167792e-02
Integer atomic weights                     I   N=          40
          12          12          12          12          12          12
          14          12          12           1           1           1
           1           1          12          12           1           1
          14          12          12           1           1          15
          12           1           1           1          12          12
           1           1           1           1           1           1
           1           1           1           1
Real atomic weights                        R   N=          40
  1.20000000e+01  1.20000000e+01  1.20000000e+01  1.20000000e+01  1.20000000e+01
  1.20000000e+01  1.40030740e+01  1.20000000e+01  1.20000000e+01  1.00782503e+00
  1.00782503e+00  1.00782503e+00  1.00782503e+00  1.00782503e+00  1.20000000e+01
  1.20000000e+01  1.00782503e+00  1.00782503e+00  1.40030740e+01  1.20000000e+01
  1.20000000e+01  1.00782503e+00  1.00782503e+00  1.59949146e+01  1.20000000e+01
  1.00782503e+00  1.00782503e+00  1.00782503e+00  1.20000000e+01  1.20000000e+01
  1.00782503e+00  1.00782503e+00  1.00782503e+00  1.00782503e+00  1.00782503e+00
  1.00782503e+00  1.00782503e+00  1.00782503e+00  1.00782503e+00  1.00782503e+00
Number of primitive shells                 I              394
Number of contracted shells                I              188
Pure/Cartesian d shells                    I                1
Pure/Cartesian f shells                    I                1
Highest angular momentum                   I                2
Largest degree of contraction              I                6
Shell types                                I   N=         188
           0           0           1           0           1           2
           0           1           0           0           1           0
           1           2           0           1           0           0
           1           0           1           2           0           1
           0           0           1           0           1           2
           0           1           0           0           1           0
           1           2           0           1           0           0
           1           0           1           2           0           1
           0           0           1           0           1           2
           0           1           0           0           1           0
           1           2           0           1           0           0
           1           0           1           2           0           1
           0           0           0           0           0           0
           0           0           0           0           0           0
           1           0           1           2           0           1
           0           0           1           0           1           2
           0           1           0           0           0           0
           0           0           1           0           1           2
           0           1           0           0           1           0
           1           2           0           1           0           0
           1           0           1           2           0           1
           0           0           0           0           0           0
           1           0           1           2           0           1
           0           0           1           0           1           2
           0           1           0           0           0           0
           0           0           0           0           1           0
           1           2           0           1           0           0
           1           0           1           2           0           1
           0           0           0           0           0           0
           0           0           0           0           0           0
           0           0           0           0           0           0
           0           0
Number of primitives per shell             I   N=         188
           6           3           3           1           1           1
           1           1           6           3           3           1
           1           1           1           1           6           3
           3           1           1           1           1           1
           6           3           3           1           1           1
           1           1           6           3           3           1
           1           1           1           1           6           3
           3           1           1           1           1           1
           6           3           3           1           1           1
           1           1           6           3           3           1
           1           1           1           1           6           3
           3           1           1           1           1           1
           3           1           3           1           3           1
           3           1           3           1           6           3
           3           1           1           1           1           1
           6           3           3           1           1           1
           1           1           3           1           3           1
           6           3           3           1           1           1
           1           1           6           3           3           1
           1           1           1           1           6           3
           3           1           1           1           1           1
           3           1           3           1           6           3
           3           1           1           1           1           1
           6           3           3           1           1           1
           1           1           3           1           3           1
           3           1           6           3           3           1
           1           1           1           1           6           3
           3           1           1           1           1           1
           3           1           3           1           3           1
           3           1           3           1           3           1
           3           1           3           1           3           1
           3           1
Shell to atom map                          I   N=         188
           1           1           1           1           1           1
           1           1           2           2           2           2
           2           2           2           2           3           3
           3           3           3           3           3           3
           4           4           4           4           4           4
           4           4           5           5           5           5
           5           5           5           5           6           6
           6           6           6           6           6           6
           7           7           7           7           7           7
           7           7           8           8           8           8
           8           8           8           8           9           9
           9           9           9           9           9           9
          10          10          11          11          12          12
          13          13          14          14          15          15
          15          15          15          15          15          15
          16          16          16          16          16          16
          16          16          17          17          18          18
          19          19          19          19          19          19
          19          19          20          20          20          20
          20          20          20          20          21          21
          21          21          21          21          21          21
          22          22          23          23          24          24
          24          24          24          24          24          24
          25          25          25          25          25          25
          25          25          26          26          27          27
          28          28          29          29          29          29
          29          29          29          29          30          30
          30          30          30          30          30          30
          31          31          32          32          33          33
          34          34          35          35          36          36
          37          37          38          38          39          39
          40          40
Primitive exponents                        R   N=         394
  3.04752490e+03  4.57369510e+02  1.03948690e+02  2.92101550e+01  9.28666300e+00
  3.16392700e+00  7.86827240e+00  1.88128850e+00  5.44249300e-01  7.86827240e+00
  1.88128850e+00  5.44249300e-01  1.68714400e-01  1.68714400e-01  8.00000000e-01
  4.38000000e-02  4.38000000e-02  3.04752490e+03  4.57369510e+02  1.03948690e+02
  2.92101550e+01  9.28666300e+00  3.16392700e+00  7.86827240e+00  1.88128850e+00
  5.44249300e-01  7.86827240e+00  1.88128850e+00  5.44249300e-01  1.68714400e-01
  1.68714400e-01  8.00000000e-01  4.38000000e-02  4.38000000e-02  3.04752490e+03
  4.57369510e+02  1.03948690e+02  2.92101550e+01  9.28666300e+00  3.16392700e+00
  7.86827240e+00  1.88128850e+00  5.44249300e-01  7.86827240e+00  1.88128850e+00
  5.44249300e-01  1.68714400e-01  1.68714400e-01  8.00000000e-01  4.38000000e-02
  4.38000000e-02  3.04752490e+03  4.57369510e+02  1.03948690e+02  2.92101550e+01
  9.28666300e+00  3.16392700e+00  7.86827240e+00  1.88128850e+00  5.44249300e-01
  7.86827240e+00  1.88128850e+00  5.44249300e-01  1.68714400e-01  1.68714400e-01
  8.00000000e-01  4.38000000e-02  4.38000000e-02  3.04752490e+03  4.57369510e+02
  1.03948690e+02  2.92101550e+01  9.28666300e+00  3.16392700e+00  7.86827240e+00
  1.88128850e+00  5.44249300e-01  7.86827240e+00  1.88128850e+00  5.44249300e-01
  1.68714400e-01  1.68714400e-01  8.00000000e-01  4.38000000e-02  4.38000000e-02
  3.04752490e+03  4.57369510e+02  1.03948690e+02  2.92101550e+01  9.28666300e+00
  3.16392700e+00  7.86827240e+00  1.88128850e+00  5.44249300e-01  7.86827240e+00
  1.88128850e+00  5.44249300e-01  1.68714400e-01  1.68714400e-01  8.00000000e-01
  4.38000000e-02  4.38000000e-02  4.17351100e+03  6.27457900e+02  1.42902100e+02
  4.02343300e+01  1.28202100e+01  4.39043700e+00  1.16263580e+01  2.71628000e+00
  7.72218000e-01  1.16263580e+01  2.71628000e+00  7.72218000e-01  2.12031300e-01
  2.12031300e-01  8.00000000e-01  6.39000000e-02  6.39000000e-02  3.04752490e+03
  4.57369510e+02  1.03948690e+02  2.92101550e+01  9.28666300e+00  3.16392700e+00
  7.86827240e+00  1.88128850e+00  5.44249300e-01  7.86827240e+00  1.88128850e+00
  5.44249300e-01  1.68714400e-01  1.68714400e-01  8.00000000e-01  4.38000000e-02
  4.38000000e-02  3.04752490e+03  4.57369510e+02  1.03948690e+02  2.92101550e+01
  9.28666300e+00  3.16392700e+00  7.86827240e+00  1.88128850e+00  5.44249300e-01
  7.86827240e+00  1.88128850e+00  5.44249300e-01  1.68714400e-01  1.68714400e-01
  8.00000000e-01  4.38000000e-02  4.38000000e-02  1.87311370e+01  2.82539370e+00
  6.40121700e-01  1.61277800e-01  1.87311370e+01  2.82539370e+00  6.40121700e-01
  1.61277800e-01  1.87311370e+01  2.82539370e+00  6.40121700e-01  1.61277800e-01
  1.87311370e+01  2.82539370e+00  6.40121700e-01  1.61277800e-01  1.87311370e+01
  2.82539370e+00  6.40121700e-01  1.61277800e-01  3.04752490e+03  4.57369510e+02
  1.03948690e+02  2.92101550e+01  9.28666300e+00  3.16392700e+00  7.86827240e+00
  1.88128850e+00  5.44249300e-01  7.86827240e+00  1.88128850e+00  5.44249300e-01
  1.68714400e-01  1.68714400e-01  8.00000000e-01  4.38000000e-02  4.38000000e-02
  3.04752490e+03  4.57369510e+02  1.03948690e+02  2.92101550e+01  9.28666300e+00
  3.16392700e+00  7.86827240e+00  1.88128850e+00  5.44249300e-01  7.86827240e+00
  1.88128850e+00  5.44249300e-01  1.68714400e-01  1.68714400e-01  8.00000000e-01
  4.38000000e-02  4.38000000e-02  1.87311370e+01  2.82539370e+00  6.40121700e-01
  1.61277800e-01  1.87311370e+01  2.82539370e+00  6.40121700e-01  1.61277800e-01
  4.17351100e+03  6.27457900e+02  1.42902100e+02  4.02343300e+01  1.28202100e+01
  4.39043700e+00  1.16263580e+01  2.71628000e+00  7.72218000e-01  1.16263580e+01
  2.71628000e+00  7.72218000e-01  2.12031300e-01  2.12031300e-01  8.00000000e-01
  6.39000000e-02  6.39000000e-02  3.04752490e+03  4.57369510e+02  1.03948690e+02
  2.92101550e+01  9.28666300e+00  3.16392700e+00  7.86827240e+00  1.88128850e+00
  5.44249300e-01  7.86827240e+00  1.88128850e+00  5.44249300e-01  1.68714400e-01
  1.68714400e-01  8.00000000e-01  4.38000000e-02  4.38000000e-02  3.04752490e+03
  4.57369510e+02  1.03948690e+02  2.92101550e+01  9.28666300e+00  3.16392700e+00
  7.86827240e+00  1.88128850e+00  5.44249300e-01  7.86827240e+00  1.88128850e+00
  5.44249300e-01  1.68714400e-01  1.68714400e-01  8.00000000e-01  4.38000000e-02
  4.38000000e-02  1.87311370e+01  2.82539370e+00  6.40121700e-01  1.61277800e-01
  1.87311370e+01  2.82539370e+00  6.40121700e-01  1.61277800e-01  5.48467170e+03
  8.25234950e+02  1.88046960e+02  5.29645000e+01  1.68975700e+01  5.79963530e+00
  1.55396160e+01  3.59993360e+00  1.01376180e+00  1.55396160e+01  3.59993360e+00
  1.01376180e+00  2.70005800e-01  2.70005800e-01  8.00000000e-01  8.45000000e-02
  8.45000000e-02  3.04752490e+03  4.57369510e+02  1.03948690e+02  2.92101550e+01
  9.28666300e+00  3.16392700e+00  7.86827240e+00  1.88128850e+00  5.44249300e-01
  7.86827240e+00  1.88128850e+00  5.44249300e-01  1.68714400e-01  1.68714400e-01
  8.00000000e-01  4.38000000e-02  4.38000000e-02  1.87311370e+01  2.82539370e+00
  6.40121700e-01  1.61277800e-01  1.87311370e+01  2.82539370e+00  6.40121700e-01
  1.61277800e-01  1.87311370e+01  2.82539370e+00  6.40121700e-01  1.61277800e-01
  3.04752490e+03  4.57369510e+02  1.03948690e+02  2.92101550e+01  9.28666300e+00
  3.16392700e+00  7.86827240e+00  1.88128850e+00  5.44249300e-01  7.86827240e+00
  1.88128850e+00  5.44249300e-01  1.68714400e-01  1.68714400e-01  8.00000000e-01
  4.38000000e-02  4.38000000e-02  3.04752490e+03  4.57369510e+02  1.03948690e+02
  2.92101550e+01  9.28666300e+00  3.16392700e+00  7.86827240e+00  1.88128850e+00
  5.44249300e-01  7.86827240e+00  1.88128850e+00  5.44249300e-01  1.68714400e-01
  1.68714400e-01  8.00000000e-01  4.38000000e-02  4.38000000e-02  1.87311370e+01
  2.82539370e+00  6.40121700e-01  1.61277800e-01  1.87311370e+01  2.82539370e+00
  6.40121700e-01  1.61277800e-01  1.87311370e+01  2.82539370e+00  6.40121700e-01
  1.61277800e-01  1.87311370e+01  2.82539370e+00  6.40121700e-01  1.61277800e-01
  1.87311370e+01  2.82539370e+00  6.40121700e-01  1.61277800e-01  1.87311370e+01
  2.82539370e+00  6.40121700e-01  1.61277800e-01  1.87311370e+01  2.82539370e+00
  6.40121700e-01  1.61277800e-01  1.87311370e+01  2.82539370e+00  6.40121700e-01
  1.61277800e-01  1.87311370e+01  2.82539370e+00  6.40121700e-01  1.61277800e-01
  1.87311370e+01  2.82539370e+00  6.40121700e-01  1.61277800e-01
Contraction coefficients                   R   N=         394
  1.83470016e-03  1.40373012e-02  6.88426061e-02  2.32184421e-01  4.67941342e-01
  3.62312032e-01 -1.19332409e-01 -1.60854212e-01  1.14345648e+00  6.89990956e-02
  3.16423980e-01  7.44308252e-01  1.00000000e+00  1.00000000e+00  1.00000000e+00
  1.00000000e+00  1.00000000e+00  1.83470016e-03  1.40373012e-02  6.88426061e-02
  2.32184421e-01  4.67941342e-01  3.62312032e-01 -1.19332409e-01 -1.60854212e-01
  1.14345648e+00  6.89990956e-02  3.16423980e-01  7.44308252e-01  1.00000000e+00
  1.00000000e+00  1.00000000e+00  1.00000000e+00  1.00000000e+00  1.83470016e-03
  1.40373012e-02  6.88426061e-02  2.32184421e-01  4.67941342e-01  3.62312032e-01
 -1.19332409e-01 -1.60854212e-01  1.14345648e+00  6.89990956e-02  3.16423980e-01
  7.44308252e-01  1.00000000e+00  1.00000000e+00  1.00000000e+00  1.00000000e+00
  1.00000000e+00  1.83470016e-03  1.40373012e-02  6.88426061e-02  2.32184421e-01
  4.67941342e-01  3.62312032e-01 -1.19332409e-01 -1.60854212e-01  1.14345648e+00
  6.89990956e-02  3.16423980e-01  7.44308252e-01  1.00000000e+00  1.00000000e+00
  1.00000000e+00  1.00000000e+00  1.00000000e+00  1.83470016e-03  1.40373012e-02
  6.88426061e-02  2.32184421e-01  4.67941342e-01  3.62312032e-01 -1.19332409e-01
 -1.60854212e-01  1.14345648e+00  6.89990956e-02  3.16423980e-01  7.44308252e-01
  1.00000000e+00  1.00000000e+00  1.00000000e+00  1.00000000e+00  1.00000000e+00
  1.83470016e-03  1.40373012e-02  6.88426061e-02  2.32184421e-01  4.67941342e-01
  3.62312032e-01 -1.19332409e-01 -1.60854212e-01  1.14345648e+00  6.89990956e-02
  3.16423980e-01  7.44308252e-01  1.00000000e+00  1.00000000e+00  1.00000000e+00
  1.00000000e+00  1.00000000e+00  1.83479944e-03  1.39949958e-02  6.85869792e-02
  2.32240930e-01  4.69069858e-01  3.60454891e-01 -1.14961023e-01 -1.69118034e-01
  1.14585223e+00  6.75800232e-02  3.23907111e-01  7.40895255e-01  1.00000000e+00
  1.00000000e+00  1.00000000e+00  1.00000000e+00  1.00000000e+00  1.83470016e-03
  1.40373012e-02  6.88426061e-02  2.32184421e-01  4.67941342e-01  3.62312032e-01
 -1.19332409e-01 -1.60854212e-01  1.14345648e+00  6.89990956e-02  3.16423980e-01
  7.44308252e-01  1.00000000e+00  1.00000000e+00  1.00000000e+00  1.00000000e+00
  1.00000000e+00  1.83470016e-03  1.40373012e-02  6.88426061e-02  2.32184421e-01
  4.67941342e-01  3.62312032e-01 -1.19332409e-01 -1.60854212e-01  1.14345648e+00
  6.89990956e-02  3.16423980e-01  7.44308252e-01  1.00000000e+00  1.00000000e+00
  1.00000000e+00  1.00000000e+00  1.00000000e+00  3.34945995e-02  2.34726947e-01
  8.13757318e-01  1.00000000e+00  3.34945995e-02  2.34726947e-01  8.13757318e-01
  1.00000000e+00  3.34945995e-02  2.34726947e-01  8.13757318e-01  1.00000000e+00
  3.34945995e-02  2.34726947e-01  8.13757318e-01  1.00000000e+00  3.34945995e-02
  2.34726947e-01  8.13757318e-01  1.00000000e+00  1.83470016e-03  1.40373012e-02
  6.88426061e-02  2.32184421e-01  4.67941342e-01  3.62312032e-01 -1.19332409e-01
 -1.60854212e-01  1.14345648e+00  6.89990956e-02  3.16423980e-01  7.44308252e-01
  1.00000000e+00  1.00000000e+00  1.00000000e+00  1.00000000e+00  1.00000000e+00
  1.83470016e-03  1.40373012e-02  6.88426061e-02  2.32184421e-01  4.67941342e-01
  3.62312032e-01 -1.19332409e-01 -1.60854212e-01  1.14345648e+00  6.89990956e-02
  3.16423980e-01  7.44308252e-01  1.00000000e+00  1.00000000e+00  1.00000000e+00
  1.00000000e+00  1.00000000e+00  3.34945995e-02  2.34726947e-01  8.13757318e-01
  1.00000000e+00  3.34945995e-02  2.34726947e-01  8.13757318e-01  1.00000000e+00
  1.83479944e-03  1.39949958e-02  6.85869792e-02  2.32240930e-01  4.69069858e-01
  3.60454891e-01 -1.14961023e-01 -1.69118034e-01  1.14585223e+00  6.75800232e-02
  3.23907111e-01  7.40895255e-01  1.00000000e+00  1.00000000e+00  1.00000000e+00
  1.00000000e+00  1.00000000e+00  1.83470016e-03  1.40373012e-02  6.88426061e-02
  2.32184421e-01  4.67941342e-01  3.62312032e-01 -1.19332409e-01 -1.60854212e-01
  1.14345648e+00  6.89990956e-02  3.16423980e-01  7.44308252e-01  1.00000000e+00
  1.00000000e+00  1.00000000e+00  1.00000000e+00  1.00000000e+00  1.83470016e-03
  1.40373012e-02  6.88426061e-02  2.32184421e-01  4.67941342e-01  3.62312032e-01
 -1.19332409e-01 -1.60854212e-01  1.14345648e+00  6.89990956e-02  3.16423980e-01
  7.44308252e-01  1.00000000e+00  1.00000000e+00  1.00000000e+00  1.00000000e+00
  1.00000000e+00  3.34945995e-02  2.34726947e-01  8.13757318e-01  1.00000000e+00
  3.34945995e-02  2.34726947e-01  8.13757318e-01  1.00000000e+00  1.83109981e-03
  1.39500985e-02  6.84450927e-02  2.32714275e-01  4.70192950e-01  3.58520862e-01
 -1.10777504e-01 -1.48026305e-01  1.13076704e+00  7.08742995e-02  3.39752798e-01
  7.27158595e-01  1.00000000e+00  1.00000000e+00  1.00000000e+00  1.00000000e+00
  1.00000000e+00  1.83470016e-03  1.40373012e-02  6.88426061e-02  2.32184421e-01
  4.67941342e-01  3.62312032e-01 -1.19332409e-01 -1.60854212e-01  1.14345648e+00
  6.89990956e-02  3.16423980e-01  7.44308252e-01  1.00000000e+00  1.00000000e+00
  1.00000000e+00  1.00000000e+00  1.00000000e+00  3.34945995e-02  2.34726947e-01
  8.13757318e-01  1.00000000e+00  3.34945995e-02  2.34726947e-01  8.13757318e-01
  1.00000000e+00  3.34945995e-02  2.34726947e-01  8.13757318e-01  1.00000000e+00
  1.83470016e-03  1.40373012e-02  6.88426061e-02  2.32184421e-01  4.67941342e-01
  3.62312032e-01 -1.19332409e-01 -1.60854212e-01  1.14345648e+00  6.89990956e-02
  3.16423980e-01  7.44308252e-01  1.00000000e+00  1.00000000e+00  1.00000000e+00
  1.00000000e+00  1.00000000e+00  1.83470016e-03  1.40373012e-02  6.88426061e-02
  2.32184421e-01  4.67941342e-01  3.62312032e-01 -1.19332409e-01 -1.60854212e-01
  1.14345648e+00  6.89990956e-02  3.16423980e-01  7.44308252e-01  1.00000000e+00
  1.00000000e+00  1.00000000e+00  1.00000000e+00  1.00000000e+00  3.34945995e-02
  2.34726947e-01  8.13757318e-01  1.00000000e+00  3.34945995e-02  2.34726947e-01
  8.13757318e-01  1.00000000e+00  3.34945995e-02  2.34726947e-01  8.13757318e-01
  1.00000000e+00  3.34945995e-02  2.34726947e-01  8.13757318e-01  1.00000000e+00
  3.34945995e-02  2.34726947e-01  8.13757318e-01  1.00000000e+00  3.34945995e-02
  2.34726947e-01  8.13757318e-01  1.00000000e+00  3.34945995e-02  2.34726947e-01
  8.13757318e-01  1.00000000e+00  3.34945995e-02  2.34726947e-01  8.13757318e-01
  1.00000000e+00  3.34945995e-02  2.34726947e-01  8.13757318e-01  1.00000000e+00
  3.34945995e-02  2.34726947e-01  8.13757318e-01  1.00000000e+00
Coordinates of each shell                  R   N=         564
  8.44834235e-01 -1.79153939e+00 -1.96930742e+00  8.44834235e-01 -1.79153939e+00
 -1.96930742e+00  8.44834235e-01 -1.79153939e+00 -1.96930742e+00  8.44834235e-01
 -1.79153939e+00 -1.96930742e+00  8.44834235e-01 -1.79153939e+00 -1.96930742e+00
  8.44834235e-01 -1.79153939e+00 -1.96930742e+00  8.44834235e-01 -1.79153939e+00
 -1.96930742e+00  8.44834235e-01 -1.79153939e+00 -1.96930742e+00  2.78977727e+00
  1.99628895e+00  5.50232638e-01  2.78977727e+00  1.99628895e+00  5.50232638e-01
  2.78977727e+00  1.99628895e+00  5.50232638e-01  2.78977727e+00  1.99628895e+00
  5.50232638e-01  2.78977727e+00  1.99628895e+00  5.50232638e-01  2.78977727e+00
  1.99628895e+00  5.50232638e-01  2.78977727e+00  1.99628895e+00  5.50232638e-01
  2.78977727e+00  1.99628895e+00  5.50232638e-01  2.24491455e+00  5.23658282e-01
 -1.58793128e+00  2.24491455e+00  5.23658282e-01 -1.58793128e+00  2.24491455e+00
  5.23658282e-01 -1.58793128e+00  2.24491455e+00  5.23658282e-01 -1.58793128e+00
  2.24491455e+00  5.23658282e-01 -1.58793128e+00  2.24491455e+00  5.23658282e-01
 -1.58793128e+00  2.24491455e+00  5.23658282e-01 -1.58793128e+00  2.24491455e+00
  5.23658282e-01 -1.58793128e+00  4.25473792e+00  4.16902223e+00  2.75718255e-01
  4.25473792e+00  4.16902223e+00  2.75718255e-01  4.25473792e+00  4.16902223e+00
  2.75718255e-01  4.25473792e+00  4.16902223e+00  2.75718255e-01  4.25473792e+00
  4.16902223e+00  2.75718255e-01  4.25473792e+00  4.16902223e+00  2.75718255e-01
  4.25473792e+00  4.16902223e+00  2.75718255e-01  4.25473792e+00  4.16902223e+00
  2.75718255e-01  5.18834717e+00  4.90316057e+00 -2.11673068e+00  5.18834717e+00
  4.90316057e+00 -2.11673068e+00  5.18834717e+00  4.90316057e+00 -2.11673068e+00
  5.18834717e+00  4.90316057e+00 -2.11673068e+00  5.18834717e+00  4.90316057e+00
 -2.11673068e+00  5.18834717e+00  4.90316057e+00 -2.11673068e+00  5.18834717e+00
  4.90316057e+00 -2.11673068e+00  5.18834717e+00  4.90316057e+00 -2.11673068e+00
  1.00995548e+00 -2.32262753e+00 -4.50789611e+00  1.00995548e+00 -2.32262753e+00
 -4.50789611e+00  1.00995548e+00 -2.32262753e+00 -4.50789611e+00  1.00995548e+00
 -2.32262753e+00 -4.50789611e+00  1.00995548e+00 -2.32262753e+00 -4.50789611e+00
  1.00995548e+00 -2.32262753e+00 -4.50789611e+00  1.00995548e+00 -2.32262753e+00
 -4.50789611e+00  1.00995548e+00 -2.32262753e+00 -4.50789611e+00  2.41043681e+00
 -4.87088995e-01 -5.73462827e+00  2.41043681e+00 -4.87088995e-01 -5.73462827e+00
  2.41043681e+00 -4.87088995e-01 -5.73462827e+00  2.41043681e+00 -4.87088995e-01
 -5.73462827e+00  2.41043681e+00 -4.87088995e-01 -5.73462827e+00  2.41043681e+00
 -4.87088995e-01 -5.73462827e+00  2.41043681e+00 -4.87088995e-01 -5.73462827e+00
  2.41043681e+00 -4.87088995e-01 -5.73462827e+00  3.20464738e+00  1.28622357e+00
 -3.98302409e+00  3.20464738e+00  1.28622357e+00 -3.98302409e+00  3.20464738e+00
  1.28622357e+00 -3.98302409e+00  3.20464738e+00  1.28622357e+00 -3.98302409e+00
  3.20464738e+00  1.28622357e+00 -3.98302409e+00  3.20464738e+00  1.28622357e+00
 -3.98302409e+00  3.20464738e+00  1.28622357e+00 -3.98302409e+00  3.20464738e+00
  1.28622357e+00 -3.98302409e+00  4.66796190e+00  3.46044503e+00 -4.26254361e+00
  4.66796190e+00  3.46044503e+00 -4.26254361e+00  4.66796190e+00  3.46044503e+00
 -4.26254361e+00  4.66796190e+00  3.46044503e+00 -4.26254361e+00  4.66796190e+00
  3.46044503e+00 -4.26254361e+00  4.66796190e+00  3.46044503e+00 -4.26254361e+00
  4.66796190e+00  3.46044503e+00 -4.26254361e+00  4.66796190e+00  3.46044503e+00
 -4.26254361e+00  6.32406277e+00  6.59575245e+00 -2.31785587e+00  6.32406277e+00
  6.59575245e+00 -2.31785587e+00  5.39828792e+00  4.03747517e+00 -6.09463890e+00
  5.39828792e+00  4.03747517e+00 -6.09463890e+00  2.10250924e+00  1.49296569e+00
  2.41751573e+00  2.10250924e+00  1.49296569e+00  2.41751573e+00  2.84263197e+00
 -4.86622635e-01 -7.59028768e+00  2.84263197e+00 -4.86622635e-01 -7.59028768e+00
  2.33917398e-01 -3.90061353e+00 -5.55353476e+00  2.33917398e-01 -3.90061353e+00
 -5.55353476e+00 -5.43480250e-01 -3.30506486e+00 -6.04344428e-03 -5.43480250e-01
 -3.30506486e+00 -6.04344428e-03 -5.43480250e-01 -3.30506486e+00 -6.04344428e-03
 -5.43480250e-01 -3.30506486e+00 -6.04344428e-03 -5.43480250e-01 -3.30506486e+00
 -6.04344428e-03 -5.43480250e-01 -3.30506486e+00 -6.04344428e-03 -5.43480250e-01
 -3.30506486e+00 -6.04344428e-03 -5.43480250e-01 -3.30506486e+00 -6.04344428e-03
 -3.08856595e+00 -2.11202483e+00  7.72296326e-01 -3.08856595e+00 -2.11202483e+00