Generated by Psi4
     FORCE                           RHF                       TESTBAS
Number of atoms                            I               28
Charge                                     I                0
Multiplicity                               I                1
Number of electrons                        I               96
Number of alpha electrons                  I               48
Number of beta electrons                   I               48
Number of basis functions                  I              277
Number of independent functions            I              277
Atomic numbers                             I   N=          28
           6           6           6           1           1           7
           6           6           6           6           6           1
           6           1           1           1           1           1
           1           1           1           8           6           6
           1           1           1           1
Nuclear charges                            R   N=          28
  6.00000000e+00  6.00000000e+00  6.00000000e+00  1.00000000e+00  1.00000000e+00
  7.00000000e+00  6.00000000e+00  6.00000000e+00  6.00000000e+00  6.00000000e+00
  6.00000000e+00  1.00000000e+00  6.00000000e+00  1.00000000e+00  1.00000000e+00
  1.00000000e+00  1.00000000e+00  1.00000000e+00  1.00000000e+00  1.00000000e+00
  1.00000000e+00  8.00000000e+00  6.00000000e+00  6.00000000e+00  1.00000000e+00
  1.00000000e+00  1.00000000e+00  1.00000000e+00
Current cartesian coordinates              R   N=          84
 -4.50623417e-01 -1.57752184e+00  6.89363039e-01 -1.42669639e+00 -2.92907791e+00
  3.01733444e+00 -3.91225447e+00 -1.82521928e+00  4.13927738e+00  2.43673894e-02
 -2.91350593e+00  4.50349022e+00 -1.77686358e+00 -4.92287375e+00  2.55137111e+00
 -4.97888265e+00 -3.38201285e+00  6.17785436e+00  1.62706982e+00  6.93596150e-02
  8.53651768e-01  2.42972299e+00  1.29245336e+00 -1.32963751e+00  1.25097104e+00
  9.48136158e-01 -3.66618475e+00 -8.02418237e-01 -6.83124005e-01 -3.83663822e+00
 -1.63469463e+00 -1.94468559e+00 -1.66076587e+00 -3.22130166e+00 -3.24451801e+00
 -1.79717148e+00 -3.57655541e+00  8.75605426e-01  5.11567343e+00 -5.33056997e+00
 -1.79600968e+00  2.62331326e+00 -1.75404724e+00 -9.91817513e-01 -5.63265881e+00
  2.59835099e+00  3.80412390e-01  2.63551842e+00 -2.19229069e+00  9.30680454e-01
  6.66427673e+00 -5.37422532e+00  1.59893746e+00  5.83992538e+00 -2.90100173e+00
  2.13786660e+00  3.62299678e+00 -3.77915848e+00 -3.43568315e+00  7.68616166e+00
 -5.23218815e+00 -5.20191556e+00  5.60059114e+00  4.41097750e+00  2.95603097e+00
 -1.42420713e+00  4.93227169e+00  3.44837246e+00 -4.07694441e+00  2.54802760e+00
  2.64514778e+00 -5.56808681e+00  6.58177982e+00  2.31083573e+00 -4.60982857e+00
  5.40394216e+00  5.44990089e+00 -4.24860609e+00  3.03835005e+00  1.69035888e+00
 -7.33839948e+00  1.36169187e+00  4.28025476e+00 -6.04867988e+00
Integer atomic weights                     I   N=          28
          12          12          12           1           1          14
          12          12          12          12          12           1
          12           1           1           1           1           1
           1           1           1          15          12          12
           1           1           1           1
Real atomic weights                        R   N=          28
  1.20000000e+01  1.20000000e+01  1.20000000e+01  1.00782503e+00  1.00782503e+00
  1.40030740e+01  1.20000000e+01  1.20000000e+01  1.20000000e+01  1.20000000e+01
  1.20000000e+01  1.00782503e+00  1.20000000e+01  1.00782503e+00  1.00782503e+00
  1.00782503e+00  1.00782503e+00  1.00782503e+00  1.00782503e+00  1.00782503e+00
  1.00782503e+00  1.59949146e+01  1.20000000e+01  1.20000000e+01  1.00782503e+00
  1.00782503e+00  1.00782503e+00  1.00782503e+00
Number of primitive shells                 I              281
Number of contracted shells                I              134
Pure/Cartesian d shells                    I                1
Pure/Cartesian f shells                    I                1
Highest angular momentum                   I                2
Largest degree of contraction              I                6
Shell types                                I   N=         134
           0           0           1           0           1           2
           0           1           0           0           1           0
           1           2           0           1           0           0
           1           0           1           2           0           1
           0           0           0           0           0           0
           1           0           1           2           0           1
           0           0           1           0           1           2
           0           1           0           0           1           0
           1           2           0           1           0           0
           1           0           1           2           0           1
           0           0           1           0           1           2
           0           1           0           0           1           0
           1           2           0           1           0           0
           0           0           1           0           1           2
           0           1           0           0           0           0
           0           0           0           0           0           0
           0           0           0           0           0           0
           0           0           1           0           1           2
           0           1           0           0           1           0
           1           2           0           1           0           0
           1           0           1           2           0           1
           0           0           0           0           0           0
           0           0
Number of primitives per shell             I   N=         134
           6           3           3           1           1           1
           1           1           6           3           3           1
           1           1           1           1           6           3
           3           1           1           1           1           1
           3           1           3           1           6           3
           3           1           1           1           1           1
           6           3           3           1           1           1
           1           1           6           3           3           1
           1           1           1           1           6           3
           3           1           1           1           1           1
           6           3           3           1           1           1
           1           1           6           3           3           1
           1           1           1           1           3           1
           6           3           3           1           1           1
           1           1           3           1           3           1
           3           1           3           1           3           1
           3           1           3           1           3           1
           6           3           3           1           1           1
           1           1           6           3           3           1
           1           1           1           1           6           3
           3           1           1           1           1           1
           3           1           3           1           3           1
           3           1
Shell to atom map                          I   N=         134
           1           1           1           1           1           1
           1           1           2           2           2           2
           2           2           2           2           3           3
           3           3           3           3           3           3
           4           4           5           5           6           6
           6           6           6           6           6           6
           7           7           7           7           7           7
           7           7           8           8           8           8
           8           8           8           8           9           9
           9           9           9           9           9           9
          10          10          10          10          10          10
          10          10          11          11          11          11
          11          11          11          11          12          12
          13          13          13          13          13          13
          13          13          14          14          15          15
          16          16          17          17          18          18
          19          19          20          20          21          21
          22          22          22          22          22          22
          22          22          23          23          23          23
          23          23          23          23          24          24
          24          24          24          24          24          24
          25          25          26          26          27          27
          28          28
Primitive exponents                        R   N=         281
  3.04752490e+03  4.57369510e+02  1.03948690e+02  2.92101550e+01  9.28666300e+00
  3.16392700e+00  7.86827240e+00  1.88128850e+00  5.44249300e-01  7.86827240e+00
  1.88128850e+00  5.44249300e-01  1.68714400e-01  1.68714400e-01  8.00000000e-01
  4.38000000e-02  4.38000000e-02  3.04752490e+03  4.57369510e+02  1.03948690e+02
  2.92101550e+01  9.28666300e+00  3.16392700e+00  7.86827240e+00  1.88128850e+00
  5.44249300e-01  7.86827240e+00  1.88128850e+00  5.44249300e-01  1.68714400e-01
  1.68714400e-01  8.00000000e-01  4.38000000e-02  4.38000000e-02  3.04752490e+03
  4.57369510e+02  1.03948690e+02  2.92101550e+01  9.28666300e+00  3.16392700e+00
  7.86827240e+00  1.88128850e+00  5.44249300e-01  7.86827240e+00  1.88128850e+00
  5.44249300e-01  1.68714400e-01  1.68714400e-01  8.00000000e-01  4.38000000e-02
  4.38000000e-02  1.87311370e+01  2.82539370e+00  6.40121700e-01  1.61277800e-01
  1.87311370e+01  2.82539370e+00  6.40121700e-01  1.61277800e-01  4.17351100e+03
  6.27457900e+02  1.42902100e+02  4.02343300e+01  1.28202100e+01  4.39043700e+00
  1.16263580e+01  2.71628000e+00  7.72218000e-01  1.16263580e+01  2.71628000e+00
  7.72218000e-01  2.12031300e-01  2.12031300e-01  8.00000000e-01  6.39000000e-02
  6.39000000e-02  3.04752490e+03  4.57369510e+02  1.03948690e+02  2.92101550e+01
  9.28666300e+00  3.16392700e+00  7.86827240e+00  1.88128850e+00  5.44249300e-01
  7.86827240e+00  1.88128850e+00  5.44249300e-01  1.68714400e-01  1.68714400e-01
  8.00000000e-01  4.38000000e-02  4.38000000e-02  3.04752490e+03  4.57369510e+02
  1.03948690e+02  2.92101550e+01  9.28666300e+00  3.16392700e+00  7.86827240e+00
  1.88128850e+00  5.44249300e-01  7.86827240e+00  1.88128850e+00  5.44249300e-01
  1.68714400e-01  1.68714400e-01  8.00000000e-01  4.38000000e-02  4.38000000e-02
  3.04752490e+03  4.57369510e+02  1.03948690e+02  2.92101550e+01  9.28666300e+00
  3.16392700e+00  7.86827240e+00  1.88128850e+00  5.44249300e-01  7.86827240e+00
  1.88128850e+00  5.44249300e-01  1.68714400e-01  1.68714400e-01  8.00000000e-01
  4.38000000e-02  4.38000000e-02  3.04752490e+03  4.57369510e+02  1.03948690e+02
  2.92101550e+01  9.28666300e+00  3.16392700e+00  7.86827240e+00  1.88128850e+00
  5.44249300e-01  7.86827240e+00  1.88128850e+00  5.44249300e-01  1.68714400e-01
  1.68714400e-01  8.00000000e-01  4.38000000e-02  4.38000000e-02  3.04752490e+03
  4.57369510e+02  1.03948690e+02  2.92101550e+01  9.28666300e+00  3.16392700e+00
  7.86827240e+00  1.88128850e+00  5.44249300e-01  7.86827240e+00  1.88128850e+00
  5.44249300e-01  1.68714400e-01  1.68714400e-01  8.00000000e-01  4.38000000e-02
  4.38000000e-02  1.87311370e+01  2.82539370e+00  6.40121700e-01  1.61277800e-01
  3.04752490e+03  4.57369510e+02  1.03948690e+02  2.92101550e+01  9.28666300e+00
  3.16392700e+00  7.86827240e+00  1.88128850e+00  5.44249300e-01  7.86827240e+00
  1.88128850e+00  5.44249300e-01  1.68714400e-01  1.68714400e-01  8.00000000e-01
  4.38000000e-02  4.38000000e-02  1.87311370e+01  2.82539370e+00  6.40121700e-01
  1.61277800e-01  1.87311370e+01  2.82539370e+00  6.40121700e-01  1.61277800e-01
  1.87311370e+01  2.82539370e+00  6.40121700e-01  1.61277800e-01  1.87311370e+01
  2.82539370e+00  6.40121700e-01  1.61277800e-01  1.87311370e+01  2.82539370e+00
  6.40121700e-01  1.61277800e-01  1.87311370e+01  2.82539370e+00  6.40121700e-01
  1.61277800e-01  1.87311370e+01  2.82539370e+00  6.40121700e-01  1.61277800e-01
  1.87311370e+01  2.82539370e+00  6.40121700e-01  1.61277800e-01  5.48467170e+03
  8.25234950e+02  1.88046960e+02  5.29645000e+01  1.68975700e+01  5.79963530e+00
  1.55396160e+01  3.59993360e+00  1.01376180e+00  1.55396160e+01  3.59993360e+00
  1.01376180e+00  2.70005800e-01  2.70005800e-01  8.00000000e-01  8.45000000e-02
  8.45000000e-02  3.04752490e+03  4.57369510e+02  1.03948690e+02  2.92101550e+01
  9.28666300e+00  3.16392700e+00  7.86827240e+00  1.88128850e+00  5.44249300e-01
  7.86827240e+00  1.88128850e+00  5.44249300e-01  1.68714400e-01  1.68714400e-01
  8.00000000e-01  4.38000000e-02  4.38000000e-02  3.04752490e+03  4.57369510e+02
  1.03948690e+02  2.92101550e+01  9.28666300e+00  3.16392700e+00  7.86827240e+00
  1.88128850e+00  5.44249300e-01  7.86827240e+00  1.88128850e+00  5.44249300e-01
  1.68714400e-01  1.68714400e-01  8.00000000e-01  4.38000000e-02  4.38000000e-02
  1.87311370e+01  2.82539370e+00  6.40121700e-01  1.61277800e-01  1.87311370e+01
  2.82539370e+00  6.40121700e-01  1.61277800e-01  1.87311370e+01  2.82539370e+00
  6.40121700e-01  1.61277800e-01  1.87311370e+01  2.82539370e+00  6.40121700e-01
  1.61277800e-01
Contraction coefficients                   R   N=         281
  1.83470016e-03  1.40373012e-02  6.88426061e-02  2.32184421e-01  4.67941342e-01
  3.62312032e-01 -1.19332409e-01 -1.60854212e-01  1.14345648e+00  6.89990956e-02
  3.16423980e-01  7.44308252e-01  1.00000000e+00  1.00000000e+00  1.00000000e+00
  1.00000000e+00  1.00000000e+00  1.83470016e-03  1.40373012e-02  6.88426061e-02
  2.32184421e-01  4.67941342e-01  3.62312032e-01 -1.19332409e-01 -1.60854212e-01
  1.14345648e+00  6.89990956e-02  3.16423980e-01  7.44308252e-01  1.00000000e+00
  1.00000000e+00  1.00000000e+00  1.00000000e+00  1.00000000e+00  1.83470016e-03
  1.40373012e-02  6.88426061e-02  2.32184421e-01  4.67941342e-01  3.62312032e-01
 -1.19332409e-01 -1.60854212e-01  1.14345648e+00  6.89990956e-02  3.16423980e-01
  7.44308252e-01  1.00000000e+00  1.00000000e+00  1.00000000e+00  1.00000000e+00
  1.00000000e+00  3.34945995e-02  2.34726947e-01  8.13757318e-01  1.00000000e+00
  3.34945995e-02  2.34726947e-01  8.13757318e-01  1.00000000e+00  1.83479944e-03
  1.39949958e-02  6.85869792e-02  2.32240930e-01  4.69069858e-01  3.60454891e-01
 -1.14961023e-01 -1.69118034e-01  1.14585223e+00  6.75800232e-02  3.23907111e-01
  7.40895255e-01  1.00000000e+00  1.00000000e+00  1.00000000e+00  1.00000000e+00
  1.00000000e+00  1.83470016e-03  1.40373012e-02  6.88426061e-02  2.32184421e-01
  4.67941342e-01  3.62312032e-01 -1.19332409e-01 -1.60854212e-01  1.14345648e+00
  6.89990956e-02  3.16423980e-01  7.44308252e-01  1.00000000e+00  1.00000000e+00
  1.00000000e+00  1.00000000e+00  1.00000000e+00  1.83470016e-03  1.40373012e-02
  6.88426061e-02  2.32184421e-01  4.67941342e-01  3.62312032e-01 -1.19332409e-01
 -1.60854212e-01  1.14345648e+00  6.89990956e-02  3.16423980e-01  7.44308252e-01
  1.00000000e+00  1.00000000e+00  1.00000000e+00  1.00000000e+00  1.00000000e+00
  1.83470016e-03  1.40373012e-02  6.88426061e-02  2.32184421e-01  4.67941342e-01
  3.62312032e-01 -1.19332409e-01 -1.60854212e-01  1.14345648e+00  6.89990956e-02
  3.16423980e-01  7.44308252e-01  1.00000000e+00  1.00000000e+00  1.00000000e+00
  1.00000000e+00  1.00000000e+00  1.83470016e-03  1.40373012e-02  6.88426061e-02
  2.32184421e-01  4.67941342e-01  3.62312032e-01 -1.19332409e-01 -1.60854212e-01
  1.14345648e+00  6.89990956e-02  3.16423980e-01  7.44308252e-01  1.00000000e+00
  1.00000000e+00  1.00000000e+00  1.00000000e+00  1.00000000e+00  1.83470016e-03
  1.40373012e-02  6.88426061e-02  2.32184421e-01  4.67941342e-01  3.62312032e-01
 -1.19332409e-01 -1.60854212e-01  1.14345648e+00  6.89990956e-02  3.16423980e-01
  7.44308252e-01  1.00000000e+00  1.00000000e+00  1.00000000e+00  1.00000000e+00
  1.00000000e+00  3.34945995e-02  2.34726947e-01  8.13757318e-01  1.00000000e+00
  1.83470016e-03  1.40373012e-02  6.88426061e-02  2.32184421e-01  4.67941342e-01
  3.62312032e-01 -1.19332409e-01 -1.60854212e-01  1.14345648e+00  6.89990956e-02
  3.16423980e-01  7.44308252e-01  1.00000000e+00  1.00000000e+00  1.00000000e+00
  1.00000000e+00  1.00000000e+00  3.34945995e-02  2.34726947e-01  8.13757318e-01
  1.00000000e+00  3.34945995e-02  2.34726947e-01  8.13757318e-01  1.00000000e+00
  3.34945995e-02  2.34726947e-01  8.13757318e-01  1.00000000e+00  3.34945995e-02
  2.34726947e-01  8.13757318e-01  1.00000000e+00  3.34945995e-02  2.34726947e-01
  8.13757318e-01  1.00000000e+00  3.34945995e-02  2.34726947e-01  8.13757318e-01
  1.00000000e+00  3.34945995e-02  2.34726947e-01  8.13757318e-01  1.00000000e+00
  3.34945995e-02  2.34726947e-01  8.13757318e-01  1.00000000e+00  1.83109981e-03
  1.39500985e-02  6.84450927e-02  2.32714275e-01  4.70192950e-01  3.58520862e-01
 -1.10777504e-01 -1.48026305e-01  1.13076704e+00  7.08742995e-02  3.39752798e-01
  7.27158595e-01  1.00000000e+00  1.00000000e+00  1.00000000e+00  1.00000000e+00
  1.00000000e+00  1.83470016e-03  1.40373012e-02  6.88426061e-02  2.32184421e-01
  4.67941342e-01  3.62312032e-01 -1.19332409e-01 -1.60854212e-01  1.14345648e+00
  6.89990956e-02  3.16423980e-01  7.44308252e-01  1.00000000e+00  1.00000000e+00
  1.00000000e+00  1.00000000e+00  1.00000000e+00  1.83470016e-03  1.40373012e-02
  6.88426061e-02  2.32184421e-01  4.67941342e-01  3.62312032e-01 -1.19332409e-01
 -1.60854212e-01  1.14345648e+00  6.89990956e-02  3.16423980e-01  7.44308252e-01
  1.00000000e+00  1.00000000e+00  1.00000000e+00  1.00000000e+00  1.00000000e+00
  3.34945995e-02  2.34726947e-01  8.13757318e-01  1.00000000e+00  3.34945995e-02
  2.34726947e-01  8.13757318e-01  1.00000000e+00  3.34945995e-02  2.34726947e-01
  8.13757318e-01  1.00000000e+00  3.34945995e-02  2.34726947e-01  8.13757318e-01
  1.00000000e+00
Coordinates of each shell                  R   N=         402
 -4.50623417e-01 -1.57752184e+00  6.89363039e-01 -4.50623417e-01 -1.57752184e+00
  6.89363039e-01 -4.50623417e-01 -1.57752184e+00  6.89363039e-01 -4.50623417e-01
 -1.57752184e+00  6.89363039e-01 -4.50623417e-01 -1.57752184e+00  6.89363039e-01
 -4.50623417e-01 -1.57752184e+00  6.89363039e-01 -4.50623417e-01 -1.57752184e+00
  6.89363039e-01 -4.50623417e-01 -1.57752184e+00  6.89363039e-01 -1.42669639e+00
 -2.92907791e+00  3.01733444e+00 -1.42669639e+00 -2.92907791e+00  3.01733444e+00
 -1.42669639e+00 -2.92907791e+00  3.01733444e+00 -1.42669639e+00 -2.92907791e+00
  3.01733444e+00 -1.42669639e+00 -2.92907791e+00  3.01733444e+00 -1.42669639e+00
 -2.92907791e+00  3.01733444e+00 -1.42669639e+00 -2.92907791e+00  3.01733444e+00
 -1.42669639e+00 -2.92907791e+00  3.01733444e+00 -3.91225447e+00 -1.82521928e+00
  4.13927738e+00 -3.91225447e+00 -1.82521928e+00  4.13927738e+00 -3.91225447e+00
 -1.82521928e+00  4.13927738e+00 -3.91225447e+00 -1.82521928e+00  4.13927738e+00
 -3.91225447e+00 -1.82521928e+00  4.13927738e+00 -3.91225447e+00 -1.82521928e+00
  4.13927738e+00 -3.91225447e+00 -1.82521928e+00  4.13927738e+00 -3.91225447e+00
 -1.82521928e+00  4.13927738e+00  2.43673894e-02 -2.91350593e+00  4.50349022e+00
  2.43673894e-02 -2.91350593e+00  4.50349022e+00 -1.77686358e+00 -4.92287375e+00
  2.55137111e+00 -1.77686358e+00 -4.92287375e+00  2.55137111e+00 -4.97888265e+00
 -3.38201285e+00  6.17785436e+00 -4.97888265e+00 -3.38201285e+00  6.17785436e+00
 -4.97888265e+00 -3.38201285e+00  6.17785436e+00 -4.97888265e+00 -3.38201285e+00
  6.17785436e+00 -4.97888265e+00 -3.38201285e+00  6.17785436e+00 -4.97888265e+00
 -3.38201285e+00  6.17785436e+00 -4.97888265e+00 -3.38201285e+00  6.17785436e+00
 -4.97888265e+00 -3.38201285e+00  6.17785436e+00  1.62706982e+00  6.93596150e-02
  8.53651768e-01  1.62706982e+00  6.93596150e-02  8.53651768e-01  1.62706982e+00
  6.93596150e-02  8.53651768e-01  1.62706982e+00  6.93596150e-02  8.53651768e-01
  1.62706982e+00  6.93596150e-02  8.53651768e-01  1.62706982e+00  6.93596150e-02
  8.53651768e-01  1.62706982e+00  6.93596150e-02  8.53651768e-01  1.62706982e+00
  6.93596150e-02  8.53651768e-01  2.42972299e+00  1.29245336e+00 -1.32963751e+00
  2.42972299e+00  1.29245336e+00 -1.32963751e+00  2.42972299e+00  1.29245336e+00
 -1.32963751e+00  2.42972299e+00  1.29245336e+00 -1.32963751e+00  2.42972299e+00
  1.29245336e+00 -1.32963751e+00  2.42972299e+00  1.29245336e+00 -1.32963751e+00
  2.42972299e+00  1.29245336e+00 -1.32963751e+00  2.42972299e+00  1.29245336e+00
 -1.32963751e+00  1.25097104e+00  9.48136158e-01 -3.66618475e+00  1.25097104e+00
  9.48136158e-01 -3.66618475e+00  1.25097104e+00  9.48136158e-01 -3.66618475e+00
  1.25097104e+00  9.48136158e-01 -3.66618475e+00  1.25097104e+00  9.48136158e-01
 -3.66618475e+00  1.25097104e+00  9.48136158e-01 -3.66618475e+00  1.25097104e+00
  9.48136158e-01 -3.66618475e+00  1.25097104e+00  9.48136158e-01 -3.66618475e+00
 -8.02418237e-01 -6.83124005e-01 -3.83663822e+00 -8.02418237e-01 -6.83124005e-01
 -3.83663822e+00 -8.02418237e-01 -6.83124005e-01 -3.83663822e+00 -8.02418237e-01
 -6.83124005e-01 -3.83663822e+00 -8.02418237e-01 -6.83124005e-01 -3.83663822e+00
 -8.02418237e-01 -6.83124005e-01 -3.83663822e+00 -8.02418237e-01 -6.83124005e-01
 -3.83663822e+00 -8.02418237e-01 -6.83124005e-01 -3.83663822e+00 -1.63469463e+00
 -1.94468559e+00 -1.66076587e+00 -1.63469463e+00 -1.94468559e+00 -1.66076587e+00
 -1.63469463e+00 -1.94468559e+00 -1.66076587e+00 -1.63469463e+00 -1.94468559e+00
 -1.66076587e+00 -1.63469463e+00 -1.94468559e+00 -1.66076587e+00 -1.63469463e+00
 -1.94468559e+00 -1.66076587e+00 -1.63469463e+00 -1.94468559e+00 -1.66076587e+00
 -1.63469463e+00 -1.94468559e+00 -1.66076587e+00 -3.22130166e+00 -3.24451801e+00
 -1.79717148e+00 -3.22130166e+00 -3.24451801e+00 -1.79717148e+00 -3.57655541e+00
  8.75605426e-01  5.11567343e+00 -3.57655541e+00  8.75605426e-01  5.11567343e+00
 -3.57655541e+00  8.75605426e-01  5.11567343e+00 -3.57655541e+00  8.75605426e-01
  5.11567343e+00 -3.57655541e+00  8.75605426e-01  5.11567343e+00 -3.57655541e+00
  8.75605426e-01  5.11567343e+00 -3.57655541e+00  8.75605426e-01  5.11567343e+00
 -3.57655541e+00  8.75605426e-01  5.11567343e+00 -5.33056997e+00 -1.79600968e+00
  2.62331326e+00 -5.33056997e+00 -1.79600968e+00  2.62331326e+00 -1.75404724e+00
 -9.91817513e-01 -5.63265881e+00 -1.75404724e+00 -9.91817513e-01 -5.63265881e+00
  2.59835099e+00  3.80412390e-01  2.63551842e+00  2.59835099e+00  3.80412390e-01
  2.63551842e+00 -2.19229069e+00  9.30680454e-01  6.66427673e+00 -2.19229069e+00
  9.30680454e-01  6.66427673e+00 -5.37422532e+00  1.59893746e+00  5.83992538e+00
 -5.37422532e+00  1.59893746e+00  5.83992538e+00 -2.90100173e+00  2.13786660e+00
  3.62299678e+00 -2.90100173e+00  2.13786660e+00  3.62299678e+00 -3.77915848e+00
 -3.43568315e+00  7.68616166e+00 -3.77915848e+00 -3.43568315e+00  7.68616166e+00
 -5.23218815e+00 -5.20191556e+00  5.60059114e+00 -5.23218815e+00 -5.20191556e+00
  5.60059114e+00  4.41097750e+00  2.95603097e+00 -1.42420713e+00  4.41097750e+00
  2.95603097e+00 -1.42420713e+00  4.41097750e+00  2.95603097e+00 -1.42420713e+00
  4.41097750e+00  2.95603097e+00 -1.42420713e+00  4.41097750e+00  2.95603097e+00
 -1.42420713e+00  4.41097750e+00  2.95603097e+00 -1.42420713e+00  4.41097750e+00
  2.95603097e+00 -1.42420713e+00  4.41097750e+00  2.95603097e+00 -1.42420713e+00
  4.93227169e+00  3.44837246e+00 -4.07694441e+00  4.93227169e+00  3.44837246e+00
 -4.07694441e+00  4.93227169e+00  3.44837246e+00 -4.07694441e+00  4.93227169e+00
  3.44837246e+00 -4.07694441e+00  4.93227169e+00  3.44837246e+00 -4.07694441e+00
  4.93227169e+00  3.44837246e+00 -4.07694441e+00  4.93227169e+00  3.44837246e+00
 -4.07694441e+00  4.93227169e+00  3.44837246e+00 -4.07694441e+00  2.54802760e+00
  2.64514778e+00 -5.56808681e+00  2.54802760e+00  2.64514778e+00 -5.56808681e+00
  2.54802760e+00  2.64514778e+00 -5.56808681e+00  2.54802760e+00  2.64514778e+00
 -5.56808681e+00  2.54802760e+00  2.64514778e+00 -5.56808681e+00  2.54802760e+00
  2.64514778e+00 -5.56808681e+00  2.54802760e+00  2.64514778e+00 -5.56808681e+00
  2.54802760e+00  2.64514778e+00 -5.56808681e+00  6.58177982e+00  2.31083573e+00
 -4.60982857e+00  6.58177982e+00  2.31083573e+00 -4.60982857e+00  5.40394216e+00
  5.44990089e+00 -4.24860609e+00  5.40394216e+00  5.44990089e+00 -4.24860609e+00
  3.03835005e+00  1.69035888e+00 -7.33839948e+00  3.03835005e+00  1.69035888e+00
 -7.33839948e+00  1.36169187e+00  4.28025476e+00 -6.04867988e+00  1.36169187e+00
  4.28025476e+00 -6.04867988e+00
Total Energy                               R     -5.581935270748389e+02
Alpha Orbital Energies                     R   N=         277
 -1.91824856e+01 -1.43211127e+01 -1.02506316e+01 -1.02451899e+01 -1.02190509e+01
 -1.02077523e+01 -1.02025997e+01 -1.01986357e+01 -1.01966998e+01 -1.01901220e+01
 -1.01898030e+01 -1.01879466e+01 -1.01728288e+01 -1.07082886e+00 -8.90357809e-01
 -8.57748216e-01 -8.02063165e-01 -7.68416370e-01 -7.42763376e-01 -7.26974513e-01
 -6.84861318e-01 -6.33514327e-01 -6.06260190e-01 -5.97480764e-01 -5.66953352e-01
 -5.09838643e-01 -5.02660046e-01 -4.97023696e-01 -4.80693326e-01 -4.74591996e-01
 -4.55656282e-01 -4.41327674e-01 -4.25195373e-01 -4.20794387e-01 -4.05482050e-01
 -3.92552513e-01 -3.86419006e-01 -3.80346138e-01 -3.70269735e-01 -3.61524242e-01
 -3.60313266e-01 -3.49875572e-01 -3.38447174e-01 -3.32902678e-01 -3.12192872e-01
 -2.55440084e-01 -2.36015618e-01 -2.16338462e-01 -1.72943818e-02 -4.41040670e-03
  4.73673965e-03  7.68775866e-03  1.57602181e-02  2.41045936e-02  2.85426631e-02
  3.31655676e-02  3.84021824e-02  4.11395716e-02  4.76668233e-02  5.44370753e-02
  5.91256369e-02  6.95057484e-02  7.37019790e-02  7.78337883e-02  8.30584117e-02
  8.79213283e-02  9.55945858e-02  1.01590350e-01  1.10647068e-01  1.11229973e-01
  1.16752992e-01  1.18855042e-01  1.30585875e-01  1.32800893e-01  1.37290920e-01
  1.40787210e-01  1.45455974e-01  1.52220292e-01  1.62167070e-01  1.64491940e-01
  1.66472799e-01  1.69585415e-01  1.73282815e-01  1.79741370e-01  1.84822524e-01
  1.85012864e-01  1.94205446e-01  1.98906728e-01  2.00349589e-01  2.05383863e-01
  2.08438681e-01  2.12888056e-01  2.13796009e-01  2.21763133e-01  2.29327159e-01
  2.34255792e-01  2.38104870e-01  2.41907365e-01  2.43994913e-01  2.51575000e-01
  2.56700523e-01  2.60750217e-01  2.65866879e-01  2.70889525e-01  2.82677071e-01
  2.83656452e-01  2.88468535e-01  2.89833129e-01  2.95999996e-01  3.00215870e-01
  3.06072997e-01  3.10232754e-01  3.12392930e-01  3.19214119e-01  3.24315774e-01
  3.29759935e-01  3.42862334e-01  3.46100240e-01  3.50010213e-01  3.64725392e-01
  3.67844244e-01  3.78357764e-01  3.81827257e-01  3.92882137e-01  4.03548219e-01
  4.07363202e-01  4.34067281e-01  4.49455654e-01  4.64515511e-01  4.85867884e-01
  5.74640357e-01  6.08846515e-01  6.46976921e-01  6.51403153e-01  6.65846895e-01
  6.72298589e-01  6.80451917e-01  6.88322988e-01  7.03480742e-01  7.05732507e-01
  7.17987867e-01  7.26352251e-01  7.38897999e-01  7.43787345e-01  7.57542547e-01
  7.63987954e-01  7.73346806e-01  7.81638003e-01  7.86757369e-01  7.91009182e-01
  7.99892852e-01  8.03767647e-01  8.17976812e-01  8.43298403e-01  8.71359945e-01
  8.85701065e-01  9.11647437e-01  9.14808467e-01  9.29102404e-01  9.39496392e-01
  9.59470056e-01  9.63724597e-01  9.79822306e-01  9.83224504e-01  9.96257107e-01
  1.00860625e+00  1.01867921e+00  1.03553782e+00  1.03942833e+00  1.06230414e+00
  1.06419507e+00  1.07377960e+00  1.09142637e+00  1.09858512e+00  1.12400254e+00
  1.14074386e+00  1.14509756e+00  1.16058349e+00  1.16822178e+00  1.18010464e+00
  1.20225643e+00  1.21413935e+00  1.22565130e+00  1.23452888e+00  1.25258077e+00
  1.25500747e+00  1.27839953e+00  1.30212384e+00  1.31283431e+00  1.32550127e+00
  1.36985685e+00  1.39694564e+00  1.41306357e+00  1.41924083e+00  1.43902459e+00
  1.46914803e+00  1.48372902e+00  1.49722153e+00  1.50239972e+00  1.53815861e+00
  1.57402270e+00  1.58574784e+00  1.62680982e+00  1.69383462e+00  1.72741448e+00
  1.74682106e+00  1.77319567e+00  1.79402268e+00  1.81354369e+00  1.82708762e+00
  1.84115664e+00  1.85448753e+00  1.86501208e+00  1.87962947e+00  1.90398933e+00
  1.92874343e+00  1.94159418e+00  1.96840380e+00  1.97002192e+00  1.99323134e+00
  1.99555437e+00  2.01557202e+00  2.02617866e+00  2.05811860e+00  2.07300120e+00
  2.08375501e+00  2.11230775e+00  2.12184361e+00  2.13075600e+00  2.18187979e+00
  2.20078730e+00  2.20679609e+00  2.22190772e+00  2.22835995e+00  2.25419219e+00
  2.29406155e+00  2.30364377e+00  2.31887793e+00  2.33895376e+00  2.34362312e+00
  2.36758806e+00  2.42262276e+00  2.43665953e+00  2.49059265e+00  2.51665280e+00
  2.52801839e+00  2.55346061e+00  2.58434506e+00  2.60170569e+00  2.61482222e+00
  2.64140208e+00  2.66589219e+00  2.69885729e+00  2.75970274e+00  2.77473474e+00
  2.80492354e+00  2.83024708e+00  2.87086103e+00  2.90021628e+00  2.96153785e+00
  2.98913826e+00  3.07747962e+00  3.20559911e+00  3.44349221e+00  3.99176242e+00
  4.22787754e+00  4.25207622e+00  4.29583642e+00  4.30099927e+00  4.33646371e+00
  4.38491391e+00  4.43499309e+00  4.48667075e+00  4.57343963e+00  4.59892481e+00
  4.62234283e+00  4.84101707e+00
Alpha MO coefficients                      R   N=       76729
 -4.39147391e-06 -1.52241348e-05 -1.25298735e-05 -1.82291892e-05  2.60512362e-05
 -2.73757116e-06 -1.07712785e-04  7.95947896e-05 -6.11681279e-04 -1.64456641e-05