Generated by Psi4
     FORCE                           RHF                       TESTBAS
Number of atoms                            I               26
Charge                                     I                0
Multiplicity                               I                1
Number of electrons                        I               94
Number of alpha electrons                  I               47
Number of beta electrons                   I               47
Number of basis functions                  I              273
Number of independent functions            I              273
Atomic numbers                             I   N=          26
           6           6           6           6           6           6
           1           1           8           6           6           1
           6           6           1           1           6           1
           1           1           7           1           1           1
           1           1
Nuclear charges                            R   N=          26
  6.00000000e+00  6.00000000e+00  6.00000000e+00  6.00000000e+00  6.00000000e+00
  6.00000000e+00  1.00000000e+00  1.00000000e+00  8.00000000e+00  6.00000000e+00
  6.00000000e+00  1.00000000e+00  6.00000000e+00  6.00000000e+00  1.00000000e+00
  1.00000000e+00  6.00000000e+00  1.00000000e+00  1.00000000e+00  1.00000000e+00
  7.00000000e+00  1.00000000e+00  1.00000000e+00  1.00000000e+00  1.00000000e+00
  1.00000000e+00
Current cartesian coordinates              R   N=          78
 -6.25300042e-01  1.04272035e+00  1.17899623e+00  1.94586581e+00  1.27900353e+00
  1.88504028e+00  3.91474607e+00  9.81833432e-01  1.66172614e-01  3.31967052e+00
  4.33078057e-01 -2.36204737e+00  7.56496418e-01  2.14983677e-01 -3.03105653e+00
 -1.23227809e+00  5.05370319e-01 -1.33832608e+00  5.86717907e+00  1.18393470e+00
  7.71684140e-01 -3.18141609e+00  3.24627443e-01 -1.95616764e+00  5.33483286e-01
 -3.09250733e-01 -5.56022993e+00  2.95798655e+00 -4.21935921e-01 -6.49079041e+00
  4.71419677e+00  6.06353401e-03 -4.67046639e+00  2.39202413e+00  1.72289908e+00
  3.84236457e+00 -2.68499843e+00  1.35590318e+00  3.14105715e+00 -2.98352301e+00
 -9.08538231e-01  4.96513103e+00 -4.51421585e+00  1.68460952e+00  2.22402228e+00
 -2.28480735e+00  3.04771363e+00  4.28061084e+00 -3.87694798e+00 -3.30633903e+00
  3.62015396e+00 -5.72579216e+00 -2.99227562e+00  2.73741350e+00 -4.06807163e+00
 -4.87546459e+00  4.96400889e+00 -2.53095592e+00 -3.88859508e+00  2.16082589e+00
 -4.86705248e+00 -2.08337229e-01  6.89059394e+00 -1.11136385e+00 -1.29921888e+00
  5.80382092e+00 -4.25916703e+00  1.29165442e+00  7.93505391e+00 -5.15882794e+00
 -1.66476639e+00  8.11583058e+00  3.09832509e+00 -8.26557050e-01 -8.48635292e+00
  6.74209283e+00  1.86096539e-02 -4.92849408e+00
Integer atomic weights                     I   N=          26
          12          12          12          12          12          12
           1           1          15          12          12           1
          12          12           1           1          12           1
           1           1          14           1           1           1
           1           1
Real atomic weights                        R   N=          26
  1.20000000e+01  1.20000000e+01  1.20000000e+01  1.20000000e+01  1.20000000e+01
  1.20000000e+01  1.00782503e+00  1.00782503e+00  1.59949146e+01  1.20000000e+01
  1.20000000e+01  1.00782503e+00  1.20000000e+01  1.20000000e+01  1.00782503e+00
  1.00782503e+00  1.20000000e+01  1.00782503e+00  1.00782503e+00  1.00782503e+00
  1.40030740e+01  1.00782503e+00  1.00782503e+00  1.00782503e+00  1.00782503e+00
  1.00782503e+00
Number of primitive shells                 I              273
Number of contracted shells                I              130
Pure/Cartesian d shells                    I                1
Pure/Cartesian f shells                    I                1
Highest angular momentum                   I                2
Largest degree of contraction              I                6
Shell types                                I   N=         130
           0           0           1           0           1           2
           0           1           0           0           1           0
           1           2           0           1           0           0
           1           0           1           2           0           1
           0           0           1           0           1           2
           0           1           0           0           1           0
           1           2           0           1           0           0
           1           0           1           2           0           1
           0           0           0           0           0           0
           1           0           1           2           0           1
           0           0           1           0           1           2
           0           1           0           0           1           0
           1           2           0           1           0           0
           0           0           1           0           1           2
           0           1           0           0           1           0
           1           2           0           1           0           0
           0           0           0           0           1           0
           1           2           0           1           0           0
           0           0           0           0           0           0
           1           0           1           2           0           1
           0           0           0           0           0           0
           0           0           0           0
Number of primitives per shell             I   N=         130
           6           3           3           1           1           1
           1           1           6           3           3           1
           1           1           1           1           6           3
           3           1           1           1           1           1
           6           3           3           1           1           1
           1           1           6           3           3           1
           1           1           1           1           6           3
           3           1           1           1           1           1
           3           1           3           1           6           3
           3           1           1           1           1           1
           6           3           3           1           1           1
           1           1           6           3           3           1
           1           1           1           1           3           1
           6           3           3           1           1           1
           1           1           6           3           3           1
           1           1           1           1           3           1
           3           1           6           3           3           1
           1           1           1           1           3           1
           3           1           3           1           6           3
           3           1           1           1           1           1
           3           1           3           1           3           1
           3           1           3           1
Shell to atom map                          I   N=         130
           1           1           1           1           1           1
           1           1           2           2           2           2
           2           2           2           2           3           3
           3           3           3           3           3           3
           4           4           4           4           4           4
           4           4           5           5           5           5
           5           5           5           5           6           6
           6           6           6           6           6           6
           7           7           8           8           9           9
           9           9           9           9           9           9
          10          10          10          10          10          10
          10          10          11          11          11          11
          11          11          11          11          12          12
          13          13          13          13          13          13
          13          13          14          14          14          14
          14          14          14          14          15          15
          16          16          17          17          17          17
          17          17          17          17          18          18
          19          19          20          20          21          21
          21          21          21          21          21          21
          22          22          23          23          24          24
          25          25          26          26
Primitive exponents                        R   N=         273
  3.04752490e+03  4.57369510e+02  1.03948690e+02  2.92101550e+01  9.28666300e+00
  3.16392700e+00  7.86827240e+00  1.88128850e+00  5.44249300e-01  7.86827240e+00
  1.88128850e+00  5.44249300e-01  1.68714400e-01  1.68714400e-01  8.00000000e-01
  4.38000000e-02  4.38000000e-02  3.04752490e+03  4.57369510e+02  1.03948690e+02
  2.92101550e+01  9.28666300e+00  3.16392700e+00  7.86827240e+00  1.88128850e+00
  5.44249300e-01  7.86827240e+00  1.88128850e+00  5.44249300e-01  1.68714400e-01
  1.68714400e-01  8.00000000e-01  4.38000000e-02  4.38000000e-02  3.04752490e+03
  4.57369510e+02  1.03948690e+02  2.92101550e+01  9.28666300e+00  3.16392700e+00
  7.86827240e+00  1.88128850e+00  5.44249300e-01  7.86827240e+00  1.88128850e+00
  5.44249300e-01  1.68714400e-01  1.68714400e-01  8.00000000e-01  4.38000000e-02
  4.38000000e-02  3.04752490e+03  4.57369510e+02  1.03948690e+02  2.92101550e+01
  9.28666300e+00  3.16392700e+00  7.86827240e+00  1.88128850e+00  5.44249300e-01
  7.86827240e+00  1.88128850e+00  5.44249300e-01  1.68714400e-01  1.68714400e-01
  8.00000000e-01  4.38000000e-02  4.38000000e-02  3.04752490e+03  4.57369510e+02
  1.03948690e+02  2.92101550e+01  9.28666300e+00  3.16392700e+00  7.86827240e+00
  1.88128850e+00  5.44249300e-01  7.86827240e+00  1.88128850e+00  5.44249300e-01
  1.68714400e-01  1.68714400e-01  8.00000000e-01  4.38000000e-02  4.38000000e-02
  3.04752490e+03  4.57369510e+02  1.03948690e+02  2.92101550e+01  9.28666300e+00
  3.16392700e+00  7.86827240e+00  1.88128850e+00  5.44249300e-01  7.86827240e+00
  1.88128850e+00  5.44249300e-01  1.68714400e-01  1.68714400e-01  8.00000000e-01
  4.38000000e-02  4.38000000e-02  1.87311370e+01  2.82539370e+00  6.40121700e-01
  1.61277800e-01  1.87311370e+01  2.82539370e+00  6.40121700e-01  1.61277800e-01
  5.48467170e+03  8.25234950e+02  1.88046960e+02  5.29645000e+01  1.68975700e+01
  5.79963530e+00  1.55396160e+01  3.59993360e+00  1.01376180e+00  1.55396160e+01
  3.59993360e+00  1.01376180e+00  2.70005800e-01  2.70005800e-01  8.00000000e-01
  8.45000000e-02  8.45000000e-02  3.04752490e+03  4.57369510e+02  1.03948690e+02
  2.92101550e+01  9.28666300e+00  3.16392700e+00  7.86827240e+00  1.88128850e+00
  5.44249300e-01  7.86827240e+00  1.88128850e+00  5.44249300e-01  1.68714400e-01
  1.68714400e-01  8.00000000e-01  4.38000000e-02  4.38000000e-02  3.04752490e+03
  4.57369510e+02  1.03948690e+02  2.92101550e+01  9.28666300e+00  3.16392700e+00
  7.86827240e+00  1.88128850e+00  5.44249300e-01  7.86827240e+00  1.88128850e+00
  5.44249300e-01  1.68714400e-01  1.68714400e-01  8.00000000e-01  4.38000000e-02
  4.38000000e-02  1.87311370e+01  2.82539370e+00  6.40121700e-01  1.61277800e-01
  3.04752490e+03  4.57369510e+02  1.03948690e+02  2.92101550e+01  9.28666300e+00
  3.16392700e+00  7.86827240e+00  1.88128850e+00  5.44249300e-01  7.86827240e+00
  1.88128850e+00  5.44249300e-01  1.68714400e-01  1.68714400e-01  8.00000000e-01
  4.38000000e-02  4.38000000e-02  3.04752490e+03  4.57369510e+02  1.03948690e+02
  2.92101550e+01  9.28666300e+00  3.16392700e+00  7.86827240e+00  1.88128850e+00
  5.44249300e-01  7.86827240e+00  1.88128850e+00  5.44249300e-01  1.68714400e-01
  1.68714400e-01  8.00000000e-01  4.38000000e-02  4.38000000e-02  1.87311370e+01
  2.82539370e+00  6.40121700e-01  1.61277800e-01  1.87311370e+01  2.82539370e+00
  6.40121700e-01  1.61277800e-01  3.04752490e+03  4.57369510e+02  1.03948690e+02
  2.92101550e+01  9.28666300e+00  3.16392700e+00  7.86827240e+00  1.88128850e+00
  5.44249300e-01  7.86827240e+00  1.88128850e+00  5.44249300e-01  1.68714400e-01
  1.68714400e-01  8.00000000e-01  4.38000000e-02  4.38000000e-02  1.87311370e+01
  2.82539370e+00  6.40121700e-01  1.61277800e-01  1.87311370e+01  2.82539370e+00
  6.40121700e-01  1.61277800e-01  1.87311370e+01  2.82539370e+00  6.40121700e-01
  1.61277800e-01  4.17351100e+03  6.27457900e+02  1.42902100e+02  4.02343300e+01
  1.28202100e+01  4.39043700e+00  1.16263580e+01  2.71628000e+00  7.72218000e-01
  1.16263580e+01  2.71628000e+00  7.72218000e-01  2.12031300e-01  2.12031300e-01
  8.00000000e-01  6.39000000e-02  6.39000000e-02  1.87311370e+01  2.82539370e+00
  6.40121700e-01  1.61277800e-01  1.87311370e+01  2.82539370e+00  6.40121700e-01
  1.61277800e-01  1.87311370e+01  2.82539370e+00  6.40121700e-01  1.61277800e-01
  1.87311370e+01  2.82539370e+00  6.40121700e-01  1.61277800e-01  1.87311370e+01
  2.82539370e+00  6.40121700e-01  1.61277800e-01
Contraction coefficients                   R   N=         273
  1.83470016e-03  1.40373012e-02  6.88426061e-02  2.32184421e-01  4.67941342e-01
  3.62312032e-01 -1.19332409e-01 -1.60854212e-01  1.14345648e+00  6.89990956e-02
  3.16423980e-01  7.44308252e-01  1.00000000e+00  1.00000000e+00  1.00000000e+00
  1.00000000e+00  1.00000000e+00  1.83470016e-03  1.40373012e-02  6.88426061e-02
  2.32184421e-01  4.67941342e-01  3.62312032e-01 -1.19332409e-01 -1.60854212e-01
  1.14345648e+00  6.89990956e-02  3.16423980e-01  7.44308252e-01  1.00000000e+00
  1.00000000e+00  1.00000000e+00  1.00000000e+00  1.00000000e+00  1.83470016e-03
  1.40373012e-02  6.88426061e-02  2.32184421e-01  4.67941342e-01  3.62312032e-01
 -1.19332409e-01 -1.60854212e-01  1.14345648e+00  6.89990956e-02  3.16423980e-01
  7.44308252e-01  1.00000000e+00  1.00000000e+00  1.00000000e+00  1.00000000e+00
  1.00000000e+00  1.83470016e-03  1.40373012e-02  6.88426061e-02  2.32184421e-01
  4.67941342e-01  3.62312032e-01 -1.19332409e-01 -1.60854212e-01  1.14345648e+00
  6.89990956e-02  3.16423980e-01  7.44308252e-01  1.00000000e+00  1.00000000e+00
  1.00000000e+00  1.00000000e+00  1.00000000e+00  1.83470016e-03  1.40373012e-02
  6.88426061e-02  2.32184421e-01  4.67941342e-01  3.62312032e-01 -1.19332409e-01
 -1.60854212e-01  1.14345648e+00  6.89990956e-02  3.16423980e-01  7.44308252e-01
  1.00000000e+00  1.00000000e+00  1.00000000e+00  1.00000000e+00  1.00000000e+00
  1.83470016e-03  1.40373012e-02  6.88426061e-02  2.32184421e-01  4.67941342e-01
  3.62312032e-01 -1.19332409e-01 -1.60854212e-01  1.14345648e+00  6.89990956e-02
  3.16423980e-01  7.44308252e-01  1.00000000e+00  1.00000000e+00  1.00000000e+00
  1.00000000e+00  1.00000000e+00  3.34945995e-02  2.34726947e-01  8.13757318e-01
  1.00000000e+00  3.34945995e-02  2.34726947e-01  8.13757318e-01  1.00000000e+00
  1.83109981e-03  1.39500985e-02  6.84450927e-02  2.32714275e-01  4.70192950e-01
  3.58520862e-01 -1.10777504e-01 -1.48026305e-01  1.13076704e+00  7.08742995e-02
  3.39752798e-01  7.27158595e-01  1.00000000e+00  1.00000000e+00  1.00000000e+00
  1.00000000e+00  1.00000000e+00  1.83470016e-03  1.40373012e-02  6.88426061e-02
  2.32184421e-01  4.67941342e-01  3.62312032e-01 -1.19332409e-01 -1.60854212e-01
  1.14345648e+00  6.89990956e-02  3.16423980e-01  7.44308252e-01  1.00000000e+00
  1.00000000e+00  1.00000000e+00  1.00000000e+00  1.00000000e+00  1.83470016e-03
  1.40373012e-02  6.88426061e-02  2.32184421e-01  4.67941342e-01  3.62312032e-01
 -1.19332409e-01 -1.60854212e-01  1.14345648e+00  6.89990956e-02  3.16423980e-01
  7.44308252e-01  1.00000000e+00  1.00000000e+00  1.00000000e+00  1.00000000e+00
  1.00000000e+00  3.34945995e-02  2.34726947e-01  8.13757318e-01  1.00000000e+00
  1.83470016e-03  1.40373012e-02  6.88426061e-02  2.32184421e-01  4.67941342e-01
  3.62312032e-01 -1.19332409e-01 -1.60854212e-01  1.14345648e+00  6.89990956e-02
  3.16423980e-01  7.44308252e-01  1.00000000e+00  1.00000000e+00  1.00000000e+00
  1.00000000e+00  1.00000000e+00  1.83470016e-03  1.40373012e-02  6.88426061e-02
  2.32184421e-01  4.67941342e-01  3.62312032e-01 -1.19332409e-01 -1.60854212e-01
  1.14345648e+00  6.89990956e-02  3.16423980e-01  7.44308252e-01  1.00000000e+00
  1.00000000e+00  1.00000000e+00  1.00000000e+00  1.00000000e+00  3.34945995e-02
  2.34726947e-01  8.13757318e-01  1.00000000e+00  3.34945995e-02  2.34726947e-01
  8.13757318e-01  1.00000000e+00  1.83470016e-03  1.40373012e-02  6.88426061e-02
  2.32184421e-01  4.67941342e-01  3.62312032e-01 -1.19332409e-01 -1.60854212e-01
  1.14345648e+00  6.89990956e-02  3.16423980e-01  7.44308252e-01  1.00000000e+00
  1.00000000e+00  1.00000000e+00  1.00000000e+00  1.00000000e+00  3.34945995e-02
  2.34726947e-01  8.13757318e-01  1.00000000e+00  3.34945995e-02  2.34726947e-01
  8.13757318e-01  1.00000000e+00  3.34945995e-02  2.34726947e-01  8.13757318e-01
  1.00000000e+00  1.83479944e-03  1.39949958e-02  6.85869792e-02  2.32240930e-01
  4.69069858e-01  3.60454891e-01 -1.14961023e-01 -1.69118034e-01  1.14585223e+00
  6.75800232e-02  3.23907111e-01  7.40895255e-01  1.00000000e+00  1.00000000e+00
  1.00000000e+00  1.00000000e+00  1.00000000e+00  3.34945995e-02  2.34726947e-01
  8.13757318e-01  1.00000000e+00  3.34945995e-02  2.34726947e-01  8.13757318e-01
  1.00000000e+00  3.34945995e-02  2.34726947e-01  8.13757318e-01  1.00000000e+00
  3.34945995e-02  2.34726947e-01  8.13757318e-01  1.00000000e+00  3.34945995e-02
  2.34726947e-01  8.13757318e-01  1.00000000e+00
Coordinates of each shell                  R   N=         390
 -6.25300042e-01  1.04272035e+00  1.17899623e+00 -6.25300042e-01  1.04272035e+00
  1.17899623e+00 -6.25300042e-01  1.04272035e+00  1.17899623e+00 -6.25300042e-01
  1.04272035e+00  1.17899623e+00 -6.25300042e-01  1.04272035e+00  1.17899623e+00
 -6.25300042e-01  1.04272035e+00  1.17899623e+00 -6.25300042e-01  1.04272035e+00
  1.17899623e+00 -6.25300042e-01  1.04272035e+00  1.17899623e+00  1.94586581e+00
  1.27900353e+00  1.88504028e+00  1.94586581e+00  1.27900353e+00  1.88504028e+00
  1.94586581e+00  1.27900353e+00  1.88504028e+00  1.94586581e+00  1.27900353e+00
  1.88504028e+00  1.94586581e+00  1.27900353e+00  1.88504028e+00  1.94586581e+00
  1.27900353e+00  1.88504028e+00  1.94586581e+00  1.27900353e+00  1.88504028e+00
  1.94586581e+00  1.27900353e+00  1.88504028e+00  3.91474607e+00  9.81833432e-01
  1.66172614e-01  3.91474607e+00  9.81833432e-01  1.66172614e-01  3.91474607e+00
  9.81833432e-01  1.66172614e-01  3.91474607e+00  9.81833432e-01  1.66172614e-01
  3.91474607e+00  9.81833432e-01  1.66172614e-01  3.91474607e+00  9.81833432e-01
  1.66172614e-01  3.91474607e+00  9.81833432e-01  1.66172614e-01  3.91474607e+00
  9.81833432e-01  1.66172614e-01  3.31967052e+00  4.33078057e-01 -2.36204737e+00
  3.31967052e+00  4.33078057e-01 -2.36204737e+00  3.31967052e+00  4.33078057e-01
 -2.36204737e+00  3.31967052e+00  4.33078057e-01 -2.36204737e+00  3.31967052e+00
  4.33078057e-01 -2.36204737e+00  3.31967052e+00  4.33078057e-01 -2.36204737e+00
  3.31967052e+00  4.33078057e-01 -2.36204737e+00  3.31967052e+00  4.33078057e-01
 -2.36204737e+00  7.56496418e-01  2.14983677e-01 -3.03105653e+00  7.56496418e-01
  2.14983677e-01 -3.03105653e+00  7.56496418e-01  2.14983677e-01 -3.03105653e+00
  7.56496418e-01  2.14983677e-01 -3.03105653e+00  7.56496418e-01  2.14983677e-01
 -3.03105653e+00  7.56496418e-01  2.14983677e-01 -3.03105653e+00  7.56496418e-01
  2.14983677e-01 -3.03105653e+00  7.56496418e-01  2.14983677e-01 -3.03105653e+00
 -1.23227809e+00  5.05370319e-01 -1.33832608e+00 -1.23227809e+00  5.05370319e-01
 -1.33832608e+00 -1.23227809e+00  5.05370319e-01 -1.33832608e+00 -1.23227809e+00
  5.05370319e-01 -1.33832608e+00 -1.23227809e+00  5.05370319e-01 -1.33832608e+00
 -1.23227809e+00  5.05370319e-01 -1.33832608e+00 -1.23227809e+00  5.05370319e-01
 -1.33832608e+00 -1.23227809e+00  5.05370319e-01 -1.33832608e+00  5.86717907e+00
  1.18393470e+00  7.71684140e-01  5.86717907e+00  1.18393470e+00  7.71684140e-01
 -3.18141609e+00  3.24627443e-01 -1.95616764e+00 -3.18141609e+00  3.24627443e-01
 -1.95616764e+00  5.33483286e-01 -3.09250733e-01 -5.56022993e+00  5.33483286e-01
 -3.09250733e-01 -5.56022993e+00  5.33483286e-01 -3.09250733e-01 -5.56022993e+00
  5.33483286e-01 -3.09250733e-01 -5.56022993e+00  5.33483286e-01 -3.09250733e-01
 -5.56022993e+00  5.33483286e-01 -3.09250733e-01 -5.56022993e+00  5.33483286e-01
 -3.09250733e-01 -5.56022993e+00  5.33483286e-01 -3.09250733e-01 -5.56022993e+00
  2.95798655e+00 -4.21935921e-01 -6.49079041e+00  2.95798655e+00 -4.21935921e-01
 -6.49079041e+00  2.95798655e+00 -4.21935921e-01 -6.49079041e+00  2.95798655e+00
 -4.21935921e-01 -6.49079041e+00  2.95798655e+00 -4.21935921e-01 -6.49079041e+00
  2.95798655e+00 -4.21935921e-01 -6.49079041e+00  2.95798655e+00 -4.21935921e-01
 -6.49079041e+00  2.95798655e+00 -4.21935921e-01 -6.49079041e+00  4.71419677e+00
  6.06353401e-03 -4.67046639e+00  4.71419677e+00  6.06353401e-03 -4.67046639e+00
  4.71419677e+00  6.06353401e-03 -4.67046639e+00  4.71419677e+00  6.06353401e-03
 -4.67046639e+00  4.71419677e+00  6.06353401e-03 -4.67046639e+00  4.71419677e+00
  6.06353401e-03 -4.67046639e+00  4.71419677e+00  6.06353401e-03 -4.67046639e+00
  4.71419677e+00  6.06353401e-03 -4.67046639e+00  2.39202413e+00  1.72289908e+00
  3.84236457e+00  2.39202413e+00  1.72289908e+00  3.84236457e+00 -2.68499843e+00
  1.35590318e+00  3.14105715e+00 -2.68499843e+00  1.35590318e+00  3.14105715e+00
 -2.68499843e+00  1.35590318e+00  3.14105715e+00 -2.68499843e+00  1.35590318e+00
  3.14105715e+00 -2.68499843e+00  1.35590318e+00  3.14105715e+00 -2.68499843e+00
  1.35590318e+00  3.14105715e+00 -2.68499843e+00  1.35590318e+00  3.14105715e+00
 -2.68499843e+00  1.35590318e+00  3.14105715e+00 -2.98352301e+00 -9.08538231e-01
  4.96513103e+00 -2.98352301e+00 -9.08538231e-01  4.96513103e+00 -2.98352301e+00
 -9.08538231e-01  4.96513103e+00 -2.98352301e+00 -9.08538231e-01  4.96513103e+00
 -2.98352301e+00 -9.08538231e-01  4.96513103e+00 -2.98352301e+00 -9.08538231e-01
  4.96513103e+00 -2.98352301e+00 -9.08538231e-01  4.96513103e+00 -2.98352301e+00
 -9.08538231e-01  4.96513103e+00 -4.51421585e+00  1.68460952e+00  2.22402228e+00
 -4.51421585e+00  1.68460952e+00  2.22402228e+00 -2.28480735e+00  3.04771363e+00
  4.28061084e+00 -2.28480735e+00  3.04771363e+00  4.28061084e+00 -3.87694798e+00
 -3.30633903e+00  3.62015396e+00 -3.87694798e+00 -3.30633903e+00  3.62015396e+00
 -3.87694798e+00 -3.30633903e+00  3.62015396e+00 -3.87694798e+00 -3.30633903e+00
  3.62015396e+00 -3.87694798e+00 -3.30633903e+00  3.62015396e+00 -3.87694798e+00
 -3.30633903e+00  3.62015396e+00 -3.87694798e+00 -3.30633903e+00  3.62015396e+00
 -3.87694798e+00 -3.30633903e+00  3.62015396e+00 -5.72579216e+00 -2.99227562e+00
  2.73741350e+00 -5.72579216e+00 -2.99227562e+00  2.73741350e+00 -4.06807163e+00
 -4.87546459e+00  4.96400889e+00 -4.06807163e+00 -4.87546459e+00  4.96400889e+00
 -2.53095592e+00 -3.88859508e+00  2.16082589e+00 -2.53095592e+00 -3.88859508e+00
  2.16082589e+00 -4.86705248e+00 -2.08337229e-01  6.89059394e+00 -4.86705248e+00
 -2.08337229e-01  6.89059394e+00 -4.86705248e+00 -2.08337229e-01  6.89059394e+00
 -4.86705248e+00 -2.08337229e-01  6.89059394e+00 -4.86705248e+00 -2.08337229e-01
  6.89059394e+00 -4.86705248e+00 -2.08337229e-01  6.89059394e+00 -4.86705248e+00
 -2.08337229e-01  6.89059394e+00 -4.86705248e+00 -2.08337229e-01  6.89059394e+00
 -1.11136385e+00 -1.29921888e+00  5.80382092e+00 -1.11136385e+00 -1.29921888e+00
  5.80382092e+00 -4.25916703e+00  1.29165442e+00  7.93505391e+00 -4.25916703e+00
  1.29165442e+00  7.93505391e+00 -5.15882794e+00 -1.66476639e+00  8.11583058e+00
 -5.15882794e+00 -1.66476639e+00  8.11583058e+00  3.09832509e+00 -8.26557050e-01
 -8.48635292e+00  3.09832509e+00 -8.26557050e-01 -8.48635292e+00  6.74209283e+00
  1.86096539e-02 -4.92849408e+00  6.74209283e+00  1.86096539e-02 -4.92849408e+00
Total Energy                               R     -5.569834190878056e+02
Alpha Orbital Energies                     R   N=         273
 -1.92217613e+01 -1.43237610e+01 -1.02533590e+01 -1.02490167e+01 -1.02216317e+01
 -1.02051848e+01 -1.02028774e+01 -1.02015708e+01 -1.02002439e+01 -1.01989618e+01
 -1.01942849e+01 -1.01903803e+01 -1.01760045e+01 -1.11399007e+00 -8.92550158e-01
 -8.63544017e-01 -8.10051924e-01 -7.72244737e-01 -7.51470119e-01 -7.29540889e-01
 -6.87517267e-01 -6.34607334e-01 -6.04445959e-01 -5.95112180e-01 -5.61856637e-01
 -5.28351497e-01 -4.98909702e-01 -4.93266614e-01 -4.87159727e-01 -4.60634106e-01
 -4.57815604e-01 -4.51121892e-01 -4.43406738e-01 -4.31017356e-01 -4.06276650e-01
 -3.89268488e-01 -3.83806314e-01 -3.74894031e-01 -3.66171029e-01 -3.62732287e-01
 -3.45573512e-01 -3.42214231e-01 -3.37677256e-01 -2.96275321e-01 -2.46517737e-01
 -2.42704878e-01 -2.24588445e-01 -2.98062891e-02 -4.87069488e-03  8.27823843e-04
  1.07071703e-02  1.81199329e-02  1.97653476e-02  2.43706628e-02  3.19952686e-02
  3.73498251e-02  4.47555163e-02  4.83083866e-02  5.19355461e-02  5.81153817e-02
  6.13824589e-02  7.19085734e-02  7.79354516e-02  8.49563391e-02  8.99256892e-02
  9.31926557e-02  1.01599176e-01  1.03257089e-01  1.07895248e-01  1.17663646e-01
  1.21597215e-01  1.24608326e-01  1.37045870e-01  1.42812764e-01  1.49873943e-01
  1.50469211e-01  1.55744285e-01  1.62732427e-01  1.64878003e-01  1.68799872e-01
  1.74590630e-01  1.78597654e-01  1.81054988e-01  1.86410785e-01  1.89648476e-01
  1.92770565e-01  1.98610087e-01  1.99937442e-01  2.05186298e-01  2.09735475e-01
  2.15929901e-01  2.17253868e-01  2.19792062e-01  2.20773494e-01  2.29022830e-01
  2.34052629e-01  2.36461599e-01  2.45156995e-01  2.50623408e-01  2.56165996e-01
  2.60546709e-01  2.67133097e-01  2.78880554e-01  2.82453757e-01  2.83229009e-01
  2.88677512e-01  2.99072285e-01  2.99574962e-01  3.07299889e-01  3.12621101e-01
  3.17278531e-01  3.19511459e-01  3.28723989e-01  3.35551407e-01  3.46395743e-01
  3.47743995e-01  3.55193501e-01  3.61976853e-01  3.70357874e-01  3.73830530e-01
  3.85632964e-01  3.87200634e-01  4.07304253e-01  4.28958502e-01  4.39994917e-01
  4.60550644e-01  4.80989356e-01  5.09260612e-01  5.78022326e-01  6.10806344e-01
  6.47396936e-01  6.58829662e-01  6.75720304e-01  6.82982785e-01  6.94435525e-01
  6.96575405e-01  7.01395522e-01  7.15354841e-01  7.18387710e-01  7.24724316e-01
  7.40013258e-01  7.51476192e-01  7.58799140e-01  7.63545730e-01  7.76380847e-01
  7.82388719e-01  7.91930920e-01  7.97803259e-01  8.05937564e-01  8.13689423e-01
  8.45588286e-01  8.84179704e-01  8.90987443e-01  8.94871781e-01  9.01727629e-01
  9.32161750e-01  9.37660038e-01  9.38940866e-01  9.56615901e-01  9.79006303e-01
  9.88457862e-01  9.93892205e-01  1.01841898e+00  1.02977839e+00  1.03873108e+00
  1.04140637e+00  1.06196811e+00  1.07530028e+00  1.09234561e+00  1.10440727e+00
  1.12941177e+00  1.14469693e+00  1.15576451e+00  1.16520660e+00  1.16656646e+00
  1.18030376e+00  1.18856561e+00  1.20113833e+00  1.20431827e+00  1.23960426e+00
  1.24737984e+00  1.25014429e+00  1.26752874e+00  1.28178727e+00  1.33271984e+00
  1.34615099e+00  1.35603909e+00  1.36860094e+00  1.37297010e+00  1.40910637e+00
  1.42684097e+00  1.42897106e+00  1.44625228e+00  1.47144594e+00  1.48681212e+00
  1.49284153e+00  1.50270842e+00  1.52461816e+00  1.55215601e+00  1.58831575e+00
  1.62011570e+00  1.67278131e+00  1.71819717e+00  1.77212695e+00  1.79764365e+00
  1.81418153e+00  1.84208480e+00  1.84633424e+00  1.86206476e+00  1.87136101e+00
  1.88726411e+00  1.90144641e+00  1.91395955e+00  1.95083687e+00  1.96411038e+00
  1.97802329e+00  1.99686343e+00  2.01115339e+00  2.03414267e+00  2.07014165e+00
  2.07628705e+00  2.10594891e+00  2.13651580e+00  2.14248832e+00  2.15021850e+00
  2.18125990e+00  2.20696238e+00  2.23513065e+00  2.24000010e+00  2.24595771e+00
  2.25576028e+00  2.29642627e+00  2.32352678e+00  2.32845146e+00  2.34446169e+00
  2.38527875e+00  2.41314914e+00  2.42528008e+00  2.44442638e+00  2.45937717e+00
  2.55172750e+00  2.56532132e+00  2.56720792e+00  2.59442927e+00  2.62325574e+00
  2.66313706e+00  2.68944341e+00  2.71366070e+00  2.74825960e+00  2.76981314e+00
  2.79223785e+00  2.83014794e+00  2.87622423e+00  2.89426087e+00  2.98087145e+00
  2.98513166e+00  3.05036224e+00  3.10344136e+00  3.23269099e+00  3.44919413e+00
  3.97322045e+00  4.23770336e+00  4.27058149e+00  4.28300281e+00  4.32277551e+00
  4.34902156e+00  4.38304667e+00  4.42839755e+00  4.46013681e+00  4.55449782e+00
  4.58432990e+00  4.62760602e+00  4.84894076e+00
Alpha MO coefficients                      R   N=       74529
 -4.88145985e-06 -1.72948895e-05 -2.46386082e-05  6.20152288e-06  2.33951710e-05
 -5.55980805e-05  5.94664839e-04  1.58109791e-05  5.92067594e-06 -4.99363864e-06
 -1.10685842e-05 -1.44966631e-05 -2.25865962e-06 -1.02073139e-05 -2.57285472e-06
  1.47763317e-03 -5.85491017e-03 -1.08873418e-03 -4.43853683e-03  6.62671224e-07
  2.34131530e-06  1.12391759e-05  3.08287789e-06  7.16777661e-06 -2.97619840e-04
  2.59850542e-04  1.41548400e-05  5.28179522e-05  5.33962122e-06 -3.63109279e-06
  1.27337800e-06 -1.77622835e-06 -1.13947952e-05  7.46723209e-07  4.02304696e-03
 -5.48133051e-03 -6.35204418e-05  1.07943161e-03 -2.95181193e-06 -2.77847492e-06
 -2.91054553e-07  7.67506261e-06  3.04721626e-05  2.02391406e-04  4.47782340e-05
 -5.49504377e-05 -2.57881498e-04  3.42917101e-06 -9.09587009e-06 -3.97948249e-05
  1.18055600e-06  3.23826180e-06 -7.33964824e-06 -1.69874984e-02 -4.20717039e-04
  1.45103276e-03  6.84313144e-03 -3.86308525e-06 -1.51037967e-04 -3.57116113e-05
 -3.25697602e-06 -1.71064888e-05  9.41976388e-04 -5.59487078e-04 -1.33061584e-04