Generated by Psi4
     FORCE                           RHF                       TESTBAS
Number of atoms                            I               38
Charge                                     I                0
Multiplicity                               I                1
Number of electrons                        I              126
Number of alpha electrons                  I               63
Number of beta electrons                   I               63
Number of basis functions                  I              365
Number of independent functions            I              365
Atomic numbers                             I   N=          38
           6           6           6           7           6           6
           6           6           6           1           1           6
           1           6           8           1           6           1
           1           6           6           1           1           1
           1           1           1           6           1           1
           6           1           1           1           1           1
           1           1
Nuclear charges                            R   N=          38
  6.00000000e+00  6.00000000e+00  6.00000000e+00  7.00000000e+00  6.00000000e+00
  6.00000000e+00  6.00000000e+00  6.00000000e+00  6.00000000e+00  1.00000000e+00
  1.00000000e+00  6.00000000e+00  1.00000000e+00  6.00000000e+00  8.00000000e+00
  1.00000000e+00  6.00000000e+00  1.00000000e+00  1.00000000e+00  6.00000000e+00
  6.00000000e+00  1.00000000e+00  1.00000000e+00  1.00000000e+00  1.00000000e+00
  1.00000000e+00  1.00000000e+00  6.00000000e+00  1.00000000e+00  1.00000000e+00
  6.00000000e+00  1.00000000e+00  1.00000000e+00  1.00000000e+00  1.00000000e+00
  1.00000000e+00  1.00000000e+00  1.00000000e+00
Current cartesian coordinates              R   N=         114
  8.33656817e-01 -1.31078970e+00 -2.86837168e+00 -1.37054052e+00  3.31869060e-01
 -2.15975225e+00 -1.52682679e+00  1.65381808e+00  4.35594918e-01 -1.37207425e+00
 -1.40193713e-01  2.54461677e+00  2.75636310e+00 -1.98820626e+00 -1.16568130e+00
  4.76808307e+00 -3.49996455e+00 -1.96373963e+00  4.88541075e+00 -4.34891344e+00
 -4.46105099e+00  2.97519230e+00 -3.68722216e+00 -6.16824382e+00  9.65939183e-01
 -2.18261298e+00 -5.37699579e+00  2.63519190e+00 -1.37521316e+00  7.85198994e-01
  6.24160155e+00 -4.01914693e+00 -6.29689921e-01  5.18941912e-01  3.76584646e+00
  5.83507993e-01 -3.41025790e+00  2.56135181e+00  4.11041752e-01 -3.27622415e+00
 -2.16478274e+00  2.43033998e+00 -3.04016447e+00  7.64869885e-01 -3.70529972e+00
 -5.28801842e-01 -1.64989389e+00 -6.67687834e+00 -3.12434820e+00 -3.42461188e+00
  5.04913683e+00 -2.86846221e+00 -3.46822715e+00  8.76007894e-01 -5.18514747e+00
 -1.36892647e+00  2.10514156e+00 -1.73997891e+00  9.82288275e-01  5.05734332e+00
 -2.05714882e+00 -1.32193851e+00  6.80512522e+00 -1.85147808e+00 -5.05483750e+00
  5.00169114e+00 -4.97870368e+00 -4.10606058e+00  5.66308526e+00 -2.29573789e-01
 -1.88660804e+00  7.59437806e+00 -3.31254232e+00 -8.95230369e-01  8.39354241e+00
 -3.46713425e+00  2.16887493e+00  5.09778613e+00 -1.39049185e-01  2.18013887e+00
  5.58381564e+00 -4.73327898e-01  6.32312256e+00  1.53716948e+00  1.34212076e+00
  4.06166328e+00 -1.29876212e+00  2.07904112e+00  3.10588970e+00  1.78039789e+00
  1.60641726e+00  8.33465990e+00  1.68694825e+00 -1.35152840e+00  6.09506779e+00
  3.40291235e+00 -1.97929106e+00  6.97467742e+00  2.65427448e-01  3.11105265e+00
  7.76642032e+00  2.99720627e+00  8.50382333e-01  1.01480208e+01  2.34545686e+00
  2.47862755e+00  8.65181980e+00 -1.67883868e-01  3.05868508e+00 -4.34430514e+00
 -8.11278418e+00  6.45460772e+00 -5.52377698e+00 -5.07697458e+00
Integer atomic weights                     I   N=          38
          12          12          12          14          12          12
          12          12          12           1           1          12
           1          12          15           1          12           1
           1          12          12           1           1           1
           1           1           1          12           1           1
          12           1           1           1           1           1
           1           1
Real atomic weights                        R   N=          38
  1.20000000e+01  1.20000000e+01  1.20000000e+01  1.40030740e+01  1.20000000e+01
  1.20000000e+01  1.20000000e+01  1.20000000e+01  1.20000000e+01  1.00782503e+00
  1.00782503e+00  1.20000000e+01  1.00782503e+00  1.20000000e+01  1.59949146e+01
  1.00782503e+00  1.20000000e+01  1.00782503e+00  1.00782503e+00  1.20000000e+01
  1.20000000e+01  1.00782503e+00  1.00782503e+00  1.00782503e+00  1.00782503e+00
  1.00782503e+00  1.00782503e+00  1.20000000e+01  1.00782503e+00  1.00782503e+00
  1.20000000e+01  1.00782503e+00  1.00782503e+00  1.00782503e+00  1.00782503e+00
  1.00782503e+00  1.00782503e+00  1.00782503e+00
Number of primitive shells                 I              373
Number of contracted shells                I              178
Pure/Cartesian d shells                    I                1
Pure/Cartesian f shells                    I                1
Highest angular momentum                   I                2
Largest degree of contraction              I                6
Shell types                                I   N=         178
           0           0           1           0           1           2
           0           1           0           0           1           0
           1           2           0           1           0           0
           1           0           1           2           0           1
           0           0           1           0           1           2
           0           1           0           0           1           0
           1           2           0           1           0           0
           1           0           1           2           0           1
           0           0           1           0           1           2
           0           1           0           0           1           0
           1           2           0           1           0           0
           1           0           1           2           0           1
           0           0           0           0           0           0
           1           0           1           2           0           1
           0           0           0           0           1           0
           1           2           0           1           0           0
           1           0           1           2           0           1
           0           0           0           0           1           0
           1           2           0           1           0           0
           0           0           0           0           1           0
           1           2           0           1           0           0
           1           0           1           2           0           1
           0           0           0           0           0           0
           0           0           0           0           0           0
           0           0           1           0           1           2
           0           1           0           0           0           0
           0           0           1           0           1           2
           0           1           0           0           0           0
           0           0           0           0           0           0
           0           0           0           0
Number of primitives per shell             I   N=         178
           6           3           3           1           1           1
           1           1           6           3           3           1
           1           1           1           1           6           3
           3           1           1           1           1           1
           6           3           3           1           1           1
           1           1           6           3           3           1
           1           1           1           1           6           3
           3           1           1           1           1           1
           6           3           3           1           1           1
           1           1           6           3           3           1
           1           1           1           1           6           3
           3           1           1           1           1           1
           3           1           3           1           6           3
           3           1           1           1           1           1
           3           1           6           3           3           1
           1           1           1           1           6           3
           3           1           1           1           1           1
           3           1           6           3           3           1
           1           1           1           1           3           1
           3           1           6           3           3           1
           1           1           1           1           6           3
           3           1           1           1           1           1
           3           1           3           1           3           1
           3           1           3           1           3           1
           6           3           3           1           1           1
           1           1           3           1           3           1
           6           3           3           1           1           1
           1           1           3           1           3           1
           3           1           3           1           3           1
           3           1           3           1
Shell to atom map                          I   N=         178
           1           1           1           1           1           1
           1           1           2           2           2           2
           2           2           2           2           3           3
           3           3           3           3           3           3
           4           4           4           4           4           4
           4           4           5           5           5           5
           5           5           5           5           6           6
           6           6           6           6           6           6
           7           7           7           7           7           7
           7           7           8           8           8           8
           8           8           8           8           9           9
           9           9           9           9           9           9
          10          10          11          11          12          12
          12          12          12          12          12          12
          13          13          14          14          14          14
          14          14          14          14          15          15
          15          15          15          15          15          15
          16          16          17          17          17          17
          17          17          17          17          18          18
          19          19          20          20          20          20
          20          20          20          20          21          21
          21          21          21          21          21          21
          22          22          23          23          24          24
          25          25          26          26          27          27
          28          28          28          28          28          28
          28          28          29          29          30          30
          31          31          31          31          31          31
          31          31          32          32          33          33
          34          34          35          35          36          36
          37          37          38          38
Primitive exponents                        R   N=         373
  3.04752490e+03  4.57369510e+02  1.03948690e+02  2.92101550e+01  9.28666300e+00
  3.16392700e+00  7.86827240e+00  1.88128850e+00  5.44249300e-01  7.86827240e+00
  1.88128850e+00  5.44249300e-01  1.68714400e-01  1.68714400e-01  8.00000000e-01
  4.38000000e-02  4.38000000e-02  3.04752490e+03  4.57369510e+02  1.03948690e+02
  2.92101550e+01  9.28666300e+00  3.16392700e+00  7.86827240e+00  1.88128850e+00
  5.44249300e-01  7.86827240e+00  1.88128850e+00  5.44249300e-01  1.68714400e-01
  1.68714400e-01  8.00000000e-01  4.38000000e-02  4.38000000e-02  3.04752490e+03
  4.57369510e+02  1.03948690e+02  2.92101550e+01  9.28666300e+00  3.16392700e+00
  7.86827240e+00  1.88128850e+00  5.44249300e-01  7.86827240e+00  1.88128850e+00
  5.44249300e-01  1.68714400e-01  1.68714400e-01  8.00000000e-01  4.38000000e-02
  4.38000000e-02  4.17351100e+03  6.27457900e+02  1.42902100e+02  4.02343300e+01
  1.28202100e+01  4.39043700e+00  1.16263580e+01  2.71628000e+00  7.72218000e-01
  1.16263580e+01  2.71628000e+00  7.72218000e-01  2.12031300e-01  2.12031300e-01
  8.00000000e-01  6.39000000e-02  6.39000000e-02  3.04752490e+03  4.57369510e+02
  1.03948690e+02  2.92101550e+01  9.28666300e+00  3.16392700e+00  7.86827240e+00
  1.88128850e+00  5.44249300e-01  7.86827240e+00  1.88128850e+00  5.44249300e-01
  1.68714400e-01  1.68714400e-01  8.00000000e-01  4.38000000e-02  4.38000000e-02
  3.04752490e+03  4.57369510e+02  1.03948690e+02  2.92101550e+01  9.28666300e+00
  3.16392700e+00  7.86827240e+00  1.88128850e+00  5.44249300e-01  7.86827240e+00
  1.88128850e+00  5.44249300e-01  1.68714400e-01  1.68714400e-01  8.00000000e-01
  4.38000000e-02  4.38000000e-02  3.04752490e+03  4.57369510e+02  1.03948690e+02
  2.92101550e+01  9.28666300e+00  3.16392700e+00  7.86827240e+00  1.88128850e+00
  5.44249300e-01  7.86827240e+00  1.88128850e+00  5.44249300e-01  1.68714400e-01
  1.68714400e-01  8.00000000e-01  4.38000000e-02  4.38000000e-02  3.04752490e+03
  4.57369510e+02  1.03948690e+02  2.92101550e+01  9.28666300e+00  3.16392700e+00
  7.86827240e+00  1.88128850e+00  5.44249300e-01  7.86827240e+00  1.88128850e+00
  5.44249300e-01  1.68714400e-01  1.68714400e-01  8.00000000e-01  4.38000000e-02
  4.38000000e-02  3.04752490e+03  4.57369510e+02  1.03948690e+02  2.92101550e+01
  9.28666300e+00  3.16392700e+00  7.86827240e+00  1.88128850e+00  5.44249300e-01
  7.86827240e+00  1.88128850e+00  5.44249300e-01  1.68714400e-01  1.68714400e-01
  8.00000000e-01  4.38000000e-02  4.38000000e-02  1.87311370e+01  2.82539370e+00
  6.40121700e-01  1.61277800e-01  1.87311370e+01  2.82539370e+00  6.40121700e-01
  1.61277800e-01  3.04752490e+03  4.57369510e+02  1.03948690e+02  2.92101550e+01
  9.28666300e+00  3.16392700e+00  7.86827240e+00  1.88128850e+00  5.44249300e-01
  7.86827240e+00  1.88128850e+00  5.44249300e-01  1.68714400e-01  1.68714400e-01
  8.00000000e-01  4.38000000e-02  4.38000000e-02  1.87311370e+01  2.82539370e+00
  6.40121700e-01  1.61277800e-01  3.04752490e+03  4.57369510e+02  1.03948690e+02
  2.92101550e+01  9.28666300e+00  3.16392700e+00  7.86827240e+00  1.88128850e+00
  5.44249300e-01  7.86827240e+00  1.88128850e+00  5.44249300e-01  1.68714400e-01
  1.68714400e-01  8.00000000e-01  4.38000000e-02  4.38000000e-02  5.48467170e+03
  8.25234950e+02  1.88046960e+02  5.29645000e+01  1.68975700e+01  5.79963530e+00
  1.55396160e+01  3.59993360e+00  1.01376180e+00  1.55396160e+01  3.59993360e+00
  1.01376180e+00  2.70005800e-01  2.70005800e-01  8.00000000e-01  8.45000000e-02
  8.45000000e-02  1.87311370e+01  2.82539370e+00  6.40121700e-01  1.61277800e-01
  3.04752490e+03  4.57369510e+02  1.03948690e+02  2.92101550e+01  9.28666300e+00
  3.16392700e+00  7.86827240e+00  1.88128850e+00  5.44249300e-01  7.86827240e+00
  1.88128850e+00  5.44249300e-01  1.68714400e-01  1.68714400e-01  8.00000000e-01
  4.38000000e-02  4.38000000e-02  1.87311370e+01  2.82539370e+00  6.40121700e-01
  1.61277800e-01  1.87311370e+01  2.82539370e+00  6.40121700e-01  1.61277800e-01
  3.04752490e+03  4.57369510e+02  1.03948690e+02  2.92101550e+01  9.28666300e+00
  3.16392700e+00  7.86827240e+00  1.88128850e+00  5.44249300e-01  7.86827240e+00
  1.88128850e+00  5.44249300e-01  1.68714400e-01  1.68714400e-01  8.00000000e-01
  4.38000000e-02  4.38000000e-02  3.04752490e+03  4.57369510e+02  1.03948690e+02
  2.92101550e+01  9.28666300e+00  3.16392700e+00  7.86827240e+00  1.88128850e+00
  5.44249300e-01  7.86827240e+00  1.88128850e+00  5.44249300e-01  1.68714400e-01
  1.68714400e-01  8.00000000e-01  4.38000000e-02  4.38000000e-02  1.87311370e+01
  2.82539370e+00  6.40121700e-01  1.61277800e-01  1.87311370e+01  2.82539370e+00
  6.40121700e-01  1.61277800e-01  1.87311370e+01  2.82539370e+00  6.40121700e-01
  1.61277800e-01  1.87311370e+01  2.82539370e+00  6.40121700e-01  1.61277800e-01
  1.87311370e+01  2.82539370e+00  6.40121700e-01  1.61277800e-01  1.87311370e+01
  2.82539370e+00  6.40121700e-01  1.61277800e-01  3.04752490e+03  4.57369510e+02
  1.03948690e+02  2.92101550e+01  9.28666300e+00  3.16392700e+00  7.86827240e+00
  1.88128850e+00  5.44249300e-01  7.86827240e+00  1.88128850e+00  5.44249300e-01
  1.68714400e-01  1.68714400e-01  8.00000000e-01  4.38000000e-02  4.38000000e-02
  1.87311370e+01  2.82539370e+00  6.40121700e-01  1.61277800e-01  1.87311370e+01
  2.82539370e+00  6.40121700e-01  1.61277800e-01  3.04752490e+03  4.57369510e+02
  1.03948690e+02  2.92101550e+01  9.28666300e+00  3.16392700e+00  7.86827240e+00
  1.88128850e+00  5.44249300e-01  7.86827240e+00  1.88128850e+00  5.44249300e-01
  1.68714400e-01  1.68714400e-01  8.00000000e-01  4.38000000e-02  4.38000000e-02
  1.87311370e+01  2.82539370e+00  6.40121700e-01  1.61277800e-01  1.87311370e+01
  2.82539370e+00  6.40121700e-01  1.61277800e-01  1.87311370e+01  2.82539370e+00
  6.40121700e-01  1.61277800e-01  1.87311370e+01  2.82539370e+00  6.40121700e-01
  1.61277800e-01  1.87311370e+01  2.82539370e+00  6.40121700e-01  1.61277800e-01
  1.87311370e+01  2.82539370e+00  6.40121700e-01  1.61277800e-01  1.87311370e+01
  2.82539370e+00  6.40121700e-01  1.61277800e-01
Contraction coefficients                   R   N=         373
  1.83470016e-03  1.40373012e-02  6.88426061e-02  2.32184421e-01  4.67941342e-01
  3.62312032e-01 -1.19332409e-01 -1.60854212e-01  1.14345648e+00  6.89990956e-02
  3.16423980e-01  7.44308252e-01  1.00000000e+00  1.00000000e+00  1.00000000e+00
  1.00000000e+00  1.00000000e+00  1.83470016e-03  1.40373012e-02  6.88426061e-02
  2.32184421e-01  4.67941342e-01  3.62312032e-01 -1.19332409e-01 -1.60854212e-01
  1.14345648e+00  6.89990956e-02  3.16423980e-01  7.44308252e-01  1.00000000e+00
  1.00000000e+00  1.00000000e+00  1.00000000e+00  1.00000000e+00  1.83470016e-03
  1.40373012e-02  6.88426061e-02  2.32184421e-01  4.67941342e-01  3.62312032e-01
 -1.19332409e-01 -1.60854212e-01  1.14345648e+00  6.89990956e-02  3.16423980e-01
  7.44308252e-01  1.00000000e+00  1.00000000e+00  1.00000000e+00  1.00000000e+00
  1.00000000e+00  1.83479944e-03  1.39949958e-02  6.85869792e-02  2.32240930e-01
  4.69069858e-01  3.60454891e-01 -1.14961023e-01 -1.69118034e-01  1.14585223e+00
  6.75800232e-02  3.23907111e-01  7.40895255e-01  1.00000000e+00  1.00000000e+00
  1.00000000e+00  1.00000000e+00  1.00000000e+00  1.83470016e-03  1.40373012e-02
  6.88426061e-02  2.32184421e-01  4.67941342e-01  3.62312032e-01 -1.19332409e-01
 -1.60854212e-01  1.14345648e+00  6.89990956e-02  3.16423980e-01  7.44308252e-01
  1.00000000e+00  1.00000000e+00  1.00000000e+00  1.00000000e+00  1.00000000e+00
  1.83470016e-03  1.40373012e-02  6.88426061e-02  2.32184421e-01  4.67941342e-01
  3.62312032e-01 -1.19332409e-01 -1.60854212e-01  1.14345648e+00  6.89990956e-02
  3.16423980e-01  7.44308252e-01  1.00000000e+00  1.00000000e+00  1.00000000e+00
  1.00000000e+00  1.00000000e+00  1.83470016e-03  1.40373012e-02  6.88426061e-02
  2.32184421e-01  4.67941342e-01  3.62312032e-01 -1.19332409e-01 -1.60854212e-01
  1.14345648e+00  6.89990956e-02  3.16423980e-01  7.44308252e-01  1.00000000e+00
  1.00000000e+00  1.00000000e+00  1.00000000e+00  1.00000000e+00  1.83470016e-03
  1.40373012e-02  6.88426061e-02  2.32184421e-01  4.67941342e-01  3.62312032e-01
 -1.19332409e-01 -1.60854212e-01  1.14345648e+00  6.89990956e-02  3.16423980e-01
  7.44308252e-01  1.00000000e+00  1.00000000e+00  1.00000000e+00  1.00000000e+00
  1.00000000e+00  1.83470016e-03  1.40373012e-02  6.88426061e-02  2.32184421e-01
  4.67941342e-01  3.62312032e-01 -1.19332409e-01 -1.60854212e-01  1.14345648e+00
  6.89990956e-02  3.16423980e-01  7.44308252e-01  1.00000000e+00  1.00000000e+00
  1.00000000e+00  1.00000000e+00  1.00000000e+00  3.34945995e-02  2.34726947e-01
  8.13757318e-01  1.00000000e+00  3.34945995e-02  2.34726947e-01  8.13757318e-01
  1.00000000e+00  1.83470016e-03  1.40373012e-02  6.88426061e-02  2.32184421e-01
  4.67941342e-01  3.62312032e-01 -1.19332409e-01 -1.60854212e-01  1.14345648e+00
  6.89990956e-02  3.16423980e-01  7.44308252e-01  1.00000000e+00  1.00000000e+00
  1.00000000e+00  1.00000000e+00  1.00000000e+00  3.34945995e-02  2.34726947e-01
  8.13757318e-01  1.00000000e+00  1.83470016e-03  1.40373012e-02  6.88426061e-02
  2.32184421e-01  4.67941342e-01  3.62312032e-01 -1.19332409e-01 -1.60854212e-01
  1.14345648e+00  6.89990956e-02  3.16423980e-01  7.44308252e-01  1.00000000e+00
  1.00000000e+00  1.00000000e+00  1.00000000e+00  1.00000000e+00  1.83109981e-03
  1.39500985e-02  6.84450927e-02  2.32714275e-01  4.70192950e-01  3.58520862e-01
 -1.10777504e-01 -1.48026305e-01  1.13076704e+00  7.08742995e-02  3.39752798e-01
  7.27158595e-01  1.00000000e+00  1.00000000e+00  1.00000000e+00  1.00000000e+00
  1.00000000e+00  3.34945995e-02  2.34726947e-01  8.13757318e-01  1.00000000e+00
  1.83470016e-03  1.40373012e-02  6.88426061e-02  2.32184421e-01  4.67941342e-01
  3.62312032e-01 -1.19332409e-01 -1.60854212e-01  1.14345648e+00  6.89990956e-02
  3.16423980e-01  7.44308252e-01  1.00000000e+00  1.00000000e+00  1.00000000e+00
  1.00000000e+00  1.00000000e+00  3.34945995e-02  2.34726947e-01  8.13757318e-01
  1.00000000e+00  3.34945995e-02  2.34726947e-01  8.13757318e-01  1.00000000e+00
  1.83470016e-03  1.40373012e-02  6.88426061e-02  2.32184421e-01  4.67941342e-01
  3.62312032e-01 -1.19332409e-01 -1.60854212e-01  1.14345648e+00  6.89990956e-02
  3.16423980e-01  7.44308252e-01  1.00000000e+00  1.00000000e+00  1.00000000e+00
  1.00000000e+00  1.00000000e+00  1.83470016e-03  1.40373012e-02  6.88426061e-02
  2.32184421e-01  4.67941342e-01  3.62312032e-01 -1.19332409e-01 -1.60854212e-01
  1.14345648e+00  6.89990956e-02  3.16423980e-01  7.44308252e-01  1.00000000e+00
  1.00000000e+00  1.00000000e+00  1.00000000e+00  1.00000000e+00  3.34945995e-02
  2.34726947e-01  8.13757318e-01  1.00000000e+00  3.34945995e-02  2.34726947e-01
  8.13757318e-01  1.00000000e+00  3.34945995e-02  2.34726947e-01  8.13757318e-01
  1.00000000e+00  3.34945995e-02  2.34726947e-01  8.13757318e-01  1.00000000e+00
  3.34945995e-02  2.34726947e-01  8.13757318e-01  1.00000000e+00  3.34945995e-02
  2.34726947e-01  8.13757318e-01  1.00000000e+00  1.83470016e-03  1.40373012e-02
  6.88426061e-02  2.32184421e-01  4.67941342e-01  3.62312032e-01 -1.19332409e-01
 -1.60854212e-01  1.14345648e+00  6.89990956e-02  3.16423980e-01  7.44308252e-01
  1.00000000e+00  1.00000000e+00  1.00000000e+00  1.00000000e+00  1.00000000e+00
  3.34945995e-02  2.34726947e-01  8.13757318e-01  1.00000000e+00  3.34945995e-02
  2.34726947e-01  8.13757318e-01  1.00000000e+00  1.83470016e-03  1.40373012e-02
  6.88426061e-02  2.32184421e-01  4.67941342e-01  3.62312032e-01 -1.19332409e-01
 -1.60854212e-01  1.14345648e+00  6.89990956e-02  3.16423980e-01  7.44308252e-01
  1.00000000e+00  1.00000000e+00  1.00000000e+00  1.00000000e+00  1.00000000e+00
  3.34945995e-02  2.34726947e-01  8.13757318e-01  1.00000000e+00  3.34945995e-02
  2.34726947e-01  8.13757318e-01  1.00000000e+00  3.34945995e-02  2.34726947e-01
  8.13757318e-01  1.00000000e+00  3.34945995e-02  2.34726947e-01  8.13757318e-01
  1.00000000e+00  3.34945995e-02  2.34726947e-01  8.13757318e-01  1.00000000e+00
  3.34945995e-02  2.34726947e-01  8.13757318e-01  1.00000000e+00  3.34945995e-02
  2.34726947e-01  8.13757318e-01  1.00000000e+00
Coordinates of each shell                  R   N=         534
  8.33656817e-01 -1.31078970e+00 -2.86837168e+00  8.33656817e-01 -1.31078970e+00
 -2.86837168e+00  8.33656817e-01 -1.31078970e+00 -2.86837168e+00  8.33656817e-01
 -1.31078970e+00 -2.86837168e+00  8.33656817e-01 -1.31078970e+00 -2.86837168e+00
  8.33656817e-01 -1.31078970e+00 -2.86837168e+00  8.33656817e-01 -1.31078970e+00
 -2.86837168e+00  8.33656817e-01 -1.31078970e+00 -2.86837168e+00 -1.37054052e+00
  3.31869060e-01 -2.15975225e+00 -1.37054052e+00  3.31869060e-01 -2.15975225e+00
 -1.37054052e+00  3.31869060e-01 -2.15975225e+00 -1.37054052e+00  3.31869060e-01
 -2.15975225e+00 -1.37054052e+00  3.31869060e-01 -2.15975225e+00 -1.37054052e+00
  3.31869060e-01 -2.15975225e+00 -1.37054052e+00  3.31869060e-01 -2.15975225e+00
 -1.37054052e+00  3.31869060e-01 -2.15975225e+00 -1.52682679e+00  1.65381808e+00
  4.35594918e-01 -1.52682679e+00  1.65381808e+00  4.35594918e-01 -1.52682679e+00
  1.65381808e+00  4.35594918e-01 -1.52682679e+00  1.65381808e+00  4.35594918e-01
 -1.52682679e+00  1.65381808e+00  4.35594918e-01 -1.52682679e+00  1.65381808e+00
  4.35594918e-01 -1.52682679e+00  1.65381808e+00  4.35594918e-01 -1.52682679e+00
  1.65381808e+00  4.35594918e-01 -1.37207425e+00 -1.40193713e-01  2.54461677e+00
 -1.37207425e+00 -1.40193713e-01  2.54461677e+00 -1.37207425e+00 -1.40193713e-01
  2.54461677e+00 -1.37207425e+00 -1.40193713e-01  2.54461677e+00 -1.37207425e+00
 -1.40193713e-01  2.54461677e+00 -1.37207425e+00 -1.40193713e-01  2.54461677e+00
 -1.37207425e+00 -1.40193713e-01  2.54461677e+00 -1.37207425e+00 -1.40193713e-01
  2.54461677e+00  2.75636310e+00 -1.98820626e+00 -1.16568130e+00  2.75636310e+00
 -1.98820626e+00 -1.16568130e+00  2.75636310e+00 -1.98820626e+00 -1.16568130e+00
  2.75636310e+00 -1.98820626e+00 -1.16568130e+00  2.75636310e+00 -1.98820626e+00
 -1.16568130e+00  2.75636310e+00 -1.98820626e+00 -1.16568130e+00  2.75636310e+00
 -1.98820626e+00 -1.16568130e+00  2.75636310e+00 -1.98820626e+00 -1.16568130e+00
  4.76808307e+00 -3.49996455e+00 -1.96373963e+00  4.76808307e+00 -3.49996455e+00
 -1.96373963e+00  4.76808307e+00 -3.49996455e+00 -1.96373963e+00  4.76808307e+00
 -3.49996455e+00 -1.96373963e+00  4.76808307e+00 -3.49996455e+00 -1.96373963e+00
  4.76808307e+00 -3.49996455e+00 -1.96373963e+00  4.76808307e+00 -3.49996455e+00
 -1.96373963e+00  4.76808307e+00 -3.49996455e+00 -1.96373963e+00  4.88541075e+00
 -4.34891344e+00 -4.46105099e+00  4.88541075e+00 -4.34891344e+00 -4.46105099e+00
  4.88541075e+00 -4.34891344e+00 -4.46105099e+00  4.88541075e+00 -4.34891344e+00
 -4.46105099e+00  4.88541075e+00 -4.34891344e+00 -4.46105099e+00  4.88541075e+00
 -4.34891344e+00 -4.46105099e+00  4.88541075e+00 -4.34891344e+00 -4.46105099e+00
  4.88541075e+00 -4.34891344e+00 -4.46105099e+00  2.97519230e+00 -3.68722216e+00
 -6.16824382e+00  2.97519230e+00 -3.68722216e+00 -6.16824382e+00  2.97519230e+00
 -3.68722216e+00 -6.16824382e+00  2.97519230e+00 -3.68722216e+00 -6.16824382e+00
  2.97519230e+00 -3.68722216e+00 -6.16824382e+00  2.97519230e+00 -3.68722216e+00
 -6.16824382e+00  2.97519230e+00 -3.68722216e+00 -6.16824382e+00  2.97519230e+00
 -3.68722216e+00 -6.16824382e+00  9.65939183e-01 -2.18261298e+00 -5.37699579e+00
  9.65939183e-01 -2.18261298e+00 -5.37699579e+00  9.65939183e-01 -2.18261298e+00
 -5.37699579e+00  9.65939183e-01 -2.18261298e+00 -5.37699579e+00  9.65939183e-01
 -2.18261298e+00 -5.37699579e+00  9.65939183e-01 -2.18261298e+00 -5.37699579e+00
  9.65939183e-01 -2.18261298e+00 -5.37699579e+00  9.65939183e-01 -2.18261298e+00
 -5.37699579e+00  2.63519190e+00 -1.37521316e+00  7.85198994e-01  2.63519190e+00
 -1.37521316e+00  7.85198994e-01  6.24160155e+00 -4.01914693e+00 -6.29689921e-01
  6.24160155e+00 -4.01914693e+00 -6.29689921e-01  5.18941912e-01  3.76584646e+00
  5.83507993e-01  5.18941912e-01  3.76584646e+00  5.83507993e-01  5.18941912e-01
  3.76584646e+00  5.83507993e-01  5.18941912e-01  3.76584646e+00  5.83507993e-01
  5.18941912e-01  3.76584646e+00  5.83507993e-01  5.18941912e-01  3.76584646e+00
  5.83507993e-01  5.18941912e-01  3.76584646e+00  5.83507993e-01  5.18941912e-01
  3.76584646e+00  5.83507993e-01 -3.41025790e+00  2.56135181e+00  4.11041752e-01
 -3.41025790e+00  2.56135181e+00  4.11041752e-01 -3.27622415e+00 -2.16478274e+00
  2.43033998e+00 -3.27622415e+00 -2.16478274e+00  2.43033998e+00 -3.27622415e+00
 -2.16478274e+00  2.43033998e+00 -3.27622415e+00 -2.16478274e+00  2.43033998e+00
 -3.27622415e+00 -2.16478274e+00  2.43033998e+00 -3.27622415e+00 -2.16478274e+00
  2.43033998e+00 -3.27622415e+00 -2.16478274e+00  2.43033998e+00 -3.27622415e+00
 -2.16478274e+00  2.43033998e+00 -3.04016447e+00  7.64869885e-01 -3.70529972e+00
 -3.04016447e+00  7.64869885e-01 -3.70529972e+00 -3.04016447e+00  7.64869885e-01
 -3.70529972e+00 -3.04016447e+00  7.64869885e-01 -3.70529972e+00 -3.04016447e+00
  7.64869885e-01 -3.70529972e+00 -3.04016447e+00  7.64869885e-01 -3.70529972e+00
 -3.04016447e+00  7.64869885e-01 -3.70529972e+00 -3.04016447e+00  7.64869885e-01
 -3.70529972e+00 -5.28801842e-01 -1.64989389e+00 -6.67687834e+00 -5.28801842e-01
 -1.64989389e+00 -6.67687834e+00 -3.12434820e+00 -3.42461188e+00  5.04913683e+00
 -3.12434820e+00 -3.42461188e+00  5.04913683e+00 -3.12434820e+00 -3.42461188e+00
  5.04913683e+00 -3.12434820e+00 -3.42461188e+00  5.04913683e+00 -3.12434820e+00
 -3.42461188e+00  5.04913683e+00 -3.12434820e+00 -3.42461188e+00  5.04913683e+00
 -3.12434820e+00 -3.42461188e+00  5.04913683e+00 -3.12434820e+00 -3.42461188e+00
  5.04913683e+00 -2.86846221e+00 -3.46822715e+00  8.76007894e-01 -2.86846221e+00
 -3.46822715e+00  8.76007894e-01 -5.18514747e+00 -1.36892647e+00  2.10514156e+00
 -5.18514747e+00 -1.36892647e+00  2.10514156e+00 -1.73997891e+00  9.82288275e-01
  5.05734332e+00 -1.73997891e+00  9.82288275e-01  5.05734332e+00 -1.73997891e+00