Generated by Psi4
     FORCE                           RHF                       TESTBAS
Number of atoms                            I               34
Charge                                     I                0
Multiplicity                               I                1
Number of electrons                        I              112
Number of alpha electrons                  I               56
Number of beta electrons                   I               56
Number of basis functions                  I              323
Number of independent functions            I              323
Atomic numbers                             I   N=          34
           6           6           6           6           6           6
           1           1           1           1           1           6
           8           6           6           1           1           1
           7           1           6           6           1           1
           1           1           1           6           6           1
           1           1           1           1
Nuclear charges                            R   N=          34
  6.00000000e+00  6.00000000e+00  6.00000000e+00  6.00000000e+00  6.00000000e+00
  6.00000000e+00  1.00000000e+00  1.00000000e+00  1.00000000e+00  1.00000000e+00
  1.00000000e+00  6.00000000e+00  8.00000000e+00  6.00000000e+00  6.00000000e+00
  1.00000000e+00  1.00000000e+00  1.00000000e+00  7.00000000e+00  1.00000000e+00
  6.00000000e+00  6.00000000e+00  1.00000000e+00  1.00000000e+00  1.00000000e+00
  1.00000000e+00  1.00000000e+00  6.00000000e+00  6.00000000e+00  1.00000000e+00
  1.00000000e+00  1.00000000e+00  1.00000000e+00  1.00000000e+00
Current cartesian coordinates              R   N=         102
  1.52666178e+00  8.97958869e-01  2.04598585e+00  3.47658311e+00  1.74304696e+00
  3.64537011e+00  4.65353153e-01 -1.50090137e+00  2.46849891e+00  1.33564995e+00
 -3.01079696e+00  4.45142693e+00  3.26726251e+00 -2.14975170e+00  6.03205029e+00
  4.33894542e+00  2.34260088e-01  5.62186144e+00 -9.96908457e-01 -2.18690223e+00
  1.20891405e+00  5.04848691e-01 -4.86471579e+00  4.75708520e+00  4.28490330e+00
  3.59722067e+00  3.30533900e+00  3.93893847e+00 -3.32896886e+00  7.57486316e+00
  5.84302285e+00  9.12102047e-01  6.84583567e+00  6.76676502e-01  2.65282392e+00
 -1.86871706e-02  1.76260596e+00  4.67428829e+00 -3.35485119e-01 -1.67811809e+00
  2.11271858e+00 -1.66418840e+00 -4.02858935e+00  2.58227182e+00 -5.97147837e-03
 -4.21978683e+00  1.15883234e+00  1.48133557e+00 -5.75799702e+00  2.58604318e+00
 -1.13849259e+00 -3.87439024e+00  4.44344186e+00  8.87249793e-01 -1.65941004e+00
 -3.97201052e-01 -2.87863752e+00 -1.62230301e+00  3.61878998e+00 -3.11175258e+00
  6.70849258e-01 -7.95880001e-01 -4.35597030e+00  1.18670688e+00 -3.58303795e+00
 -4.92481094e+00  2.26544258e+00 -5.97272004e-02 -3.26328970e+00  6.27239514e-01
  3.06155274e-01 -6.13506969e+00  1.36318701e+00 -4.66332343e+00 -3.16740389e+00
  2.95691548e+00 -3.76944815e+00 -5.98631153e+00 -3.12287566e-01 -4.44873731e+00
 -6.06182993e+00 -3.94684661e+00 -8.64515405e-01 -4.41824315e+00 -5.83955896e+00
 -2.66955092e+00 -3.17762699e+00 -3.36109520e+00 -1.67809069e+00 -6.22999917e+00
 -4.87745917e+00  9.35318618e-01 -4.90045535e+00 -4.95447940e+00 -4.50638342e+00
 -2.81511765e+00 -7.47263255e+00 -2.96862082e+00 -4.42208155e+00 -6.53623129e+00
 -1.93765534e+00 -1.37292189e+00
Integer atomic weights                     I   N=          34
          12          12          12          12          12          12
           1           1           1           1           1          12
          15          12          12           1           1           1
          14           1          12          12           1           1
           1           1           1          12          12           1
           1           1           1           1
Real atomic weights                        R   N=          34
  1.20000000e+01  1.20000000e+01  1.20000000e+01  1.20000000e+01  1.20000000e+01
  1.20000000e+01  1.00782503e+00  1.00782503e+00  1.00782503e+00  1.00782503e+00
  1.00782503e+00  1.20000000e+01  1.59949146e+01  1.20000000e+01  1.20000000e+01
  1.00782503e+00  1.00782503e+00  1.00782503e+00  1.40030740e+01  1.00782503e+00
  1.20000000e+01  1.20000000e+01  1.00782503e+00  1.00782503e+00  1.00782503e+00
  1.00782503e+00  1.00782503e+00  1.20000000e+01  1.20000000e+01  1.00782503e+00
  1.00782503e+00  1.00782503e+00  1.00782503e+00  1.00782503e+00
Number of primitive shells                 I              331
Number of contracted shells                I              158
Pure/Cartesian d shells                    I                1
Pure/Cartesian f shells                    I                1
Highest angular momentum                   I                2
Largest degree of contraction              I                6
Shell types                                I   N=         158
           0           0           1           0           1           2
           0           1           0           0           1           0
           1           2           0           1           0           0
           1           0           1           2           0           1
           0           0           1           0           1           2
           0           1           0           0           1           0
           1           2           0           1           0           0
           1           0           1           2           0           1
           0           0           0           0           0           0
           0           0           0           0           0           0
           1           0           1           2           0           1
           0           0           1           0           1           2
           0           1           0           0           1           0
           1           2           0           1           0           0
           1           0           1           2           0           1
           0           0           0           0           0           0
           0           0           1           0           1           2
           0           1           0           0           0           0
           1           0           1           2           0           1
           0           0           1           0           1           2
           0           1           0           0           0           0
           0           0           0           0           0           0
           0           0           1           0           1           2
           0           1           0           0           1           0
           1           2           0           1           0           0
           0           0           0           0           0           0
           0           0
Number of primitives per shell             I   N=         158
           6           3           3           1           1           1
           1           1           6           3           3           1
           1           1           1           1           6           3
           3           1           1           1           1           1
           6           3           3           1           1           1
           1           1           6           3           3           1
           1           1           1           1           6           3
           3           1           1           1           1           1
           3           1           3           1           3           1
           3           1           3           1           6           3
           3           1           1           1           1           1
           6           3           3           1           1           1
           1           1           6           3           3           1
           1           1           1           1           6           3
           3           1           1           1           1           1
           3           1           3           1           3           1
           6           3           3           1           1           1
           1           1           3           1           6           3
           3           1           1           1           1           1
           6           3           3           1           1           1
           1           1           3           1           3           1
           3           1           3           1           3           1
           6           3           3           1           1           1
           1           1           6           3           3           1
           1           1           1           1           3           1
           3           1           3           1           3           1
           3           1
Shell to atom map                          I   N=         158
           1           1           1           1           1           1
           1           1           2           2           2           2
           2           2           2           2           3           3
           3           3           3           3           3           3
           4           4           4           4           4           4
           4           4           5           5           5           5
           5           5           5           5           6           6
           6           6           6           6           6           6
           7           7           8           8           9           9
          10          10          11          11          12          12
          12          12          12          12          12          12
          13          13          13          13          13          13
          13          13          14          14          14          14
          14          14          14          14          15          15
          15          15          15          15          15          15
          16          16          17          17          18          18
          19          19          19          19          19          19
          19          19          20          20          21          21
          21          21          21          21          21          21
          22          22          22          22          22          22
          22          22          23          23          24          24
          25          25          26          26          27          27
          28          28          28          28          28          28
          28          28          29          29          29          29
          29          29          29          29          30          30
          31          31          32          32          33          33
          34          34
Primitive exponents                        R   N=         331
  3.04752490e+03  4.57369510e+02  1.03948690e+02  2.92101550e+01  9.28666300e+00
  3.16392700e+00  7.86827240e+00  1.88128850e+00  5.44249300e-01  7.86827240e+00
  1.88128850e+00  5.44249300e-01  1.68714400e-01  1.68714400e-01  8.00000000e-01
  4.38000000e-02  4.38000000e-02  3.04752490e+03  4.57369510e+02  1.03948690e+02
  2.92101550e+01  9.28666300e+00  3.16392700e+00  7.86827240e+00  1.88128850e+00
  5.44249300e-01  7.86827240e+00  1.88128850e+00  5.44249300e-01  1.68714400e-01
  1.68714400e-01  8.00000000e-01  4.38000000e-02  4.38000000e-02  3.04752490e+03
  4.57369510e+02  1.03948690e+02  2.92101550e+01  9.28666300e+00  3.16392700e+00
  7.86827240e+00  1.88128850e+00  5.44249300e-01  7.86827240e+00  1.88128850e+00
  5.44249300e-01  1.68714400e-01  1.68714400e-01  8.00000000e-01  4.38000000e-02
  4.38000000e-02  3.04752490e+03  4.57369510e+02  1.03948690e+02  2.92101550e+01
  9.28666300e+00  3.16392700e+00  7.86827240e+00  1.88128850e+00  5.44249300e-01
  7.86827240e+00  1.88128850e+00  5.44249300e-01  1.68714400e-01  1.68714400e-01
  8.00000000e-01  4.38000000e-02  4.38000000e-02  3.04752490e+03  4.57369510e+02
  1.03948690e+02  2.92101550e+01  9.28666300e+00  3.16392700e+00  7.86827240e+00
  1.88128850e+00  5.44249300e-01  7.86827240e+00  1.88128850e+00  5.44249300e-01
  1.68714400e-01  1.68714400e-01  8.00000000e-01  4.38000000e-02  4.38000000e-02
  3.04752490e+03  4.57369510e+02  1.03948690e+02  2.92101550e+01  9.28666300e+00
  3.16392700e+00  7.86827240e+00  1.88128850e+00  5.44249300e-01  7.86827240e+00
  1.88128850e+00  5.44249300e-01  1.68714400e-01  1.68714400e-01  8.00000000e-01
  4.38000000e-02  4.38000000e-02  1.87311370e+01  2.82539370e+00  6.40121700e-01
  1.61277800e-01  1.87311370e+01  2.82539370e+00  6.40121700e-01  1.61277800e-01
  1.87311370e+01  2.82539370e+00  6.40121700e-01  1.61277800e-01  1.87311370e+01
  2.82539370e+00  6.40121700e-01  1.61277800e-01  1.87311370e+01  2.82539370e+00
  6.40121700e-01  1.61277800e-01  3.04752490e+03  4.57369510e+02  1.03948690e+02
  2.92101550e+01  9.28666300e+00  3.16392700e+00  7.86827240e+00  1.88128850e+00
  5.44249300e-01  7.86827240e+00  1.88128850e+00  5.44249300e-01  1.68714400e-01
  1.68714400e-01  8.00000000e-01  4.38000000e-02  4.38000000e-02  5.48467170e+03
  8.25234950e+02  1.88046960e+02  5.29645000e+01  1.68975700e+01  5.79963530e+00
  1.55396160e+01  3.59993360e+00  1.01376180e+00  1.55396160e+01  3.59993360e+00
  1.01376180e+00  2.70005800e-01  2.70005800e-01  8.00000000e-01  8.45000000e-02
  8.45000000e-02  3.04752490e+03  4.57369510e+02  1.03948690e+02  2.92101550e+01
  9.28666300e+00  3.16392700e+00  7.86827240e+00  1.88128850e+00  5.44249300e-01
  7.86827240e+00  1.88128850e+00  5.44249300e-01  1.68714400e-01  1.68714400e-01
  8.00000000e-01  4.38000000e-02  4.38000000e-02  3.04752490e+03  4.57369510e+02
  1.03948690e+02  2.92101550e+01  9.28666300e+00  3.16392700e+00  7.86827240e+00
  1.88128850e+00  5.44249300e-01  7.86827240e+00  1.88128850e+00  5.44249300e-01
  1.68714400e-01  1.68714400e-01  8.00000000e-01  4.38000000e-02  4.38000000e-02
  1.87311370e+01  2.82539370e+00  6.40121700e-01  1.61277800e-01  1.87311370e+01
  2.82539370e+00  6.40121700e-01  1.61277800e-01  1.87311370e+01  2.82539370e+00
  6.40121700e-01  1.61277800e-01  4.17351100e+03  6.27457900e+02  1.42902100e+02
  4.02343300e+01  1.28202100e+01  4.39043700e+00  1.16263580e+01  2.71628000e+00
  7.72218000e-01  1.16263580e+01  2.71628000e+00  7.72218000e-01  2.12031300e-01
  2.12031300e-01  8.00000000e-01  6.39000000e-02  6.39000000e-02  1.87311370e+01
  2.82539370e+00  6.40121700e-01  1.61277800e-01  3.04752490e+03  4.57369510e+02
  1.03948690e+02  2.92101550e+01  9.28666300e+00  3.16392700e+00  7.86827240e+00
  1.88128850e+00  5.44249300e-01  7.86827240e+00  1.88128850e+00  5.44249300e-01
  1.68714400e-01  1.68714400e-01  8.00000000e-01  4.38000000e-02  4.38000000e-02
  3.04752490e+03  4.57369510e+02  1.03948690e+02  2.92101550e+01  9.28666300e+00
  3.16392700e+00  7.86827240e+00  1.88128850e+00  5.44249300e-01  7.86827240e+00
  1.88128850e+00  5.44249300e-01  1.68714400e-01  1.68714400e-01  8.00000000e-01
  4.38000000e-02  4.38000000e-02  1.87311370e+01  2.82539370e+00  6.40121700e-01
  1.61277800e-01  1.87311370e+01  2.82539370e+00  6.40121700e-01  1.61277800e-01
  1.87311370e+01  2.82539370e+00  6.40121700e-01  1.61277800e-01  1.87311370e+01
  2.82539370e+00  6.40121700e-01  1.61277800e-01  1.87311370e+01  2.82539370e+00
  6.40121700e-01  1.61277800e-01  3.04752490e+03  4.57369510e+02  1.03948690e+02
  2.92101550e+01  9.28666300e+00  3.16392700e+00  7.86827240e+00  1.88128850e+00
  5.44249300e-01  7.86827240e+00  1.88128850e+00  5.44249300e-01  1.68714400e-01
  1.68714400e-01  8.00000000e-01  4.38000000e-02  4.38000000e-02  3.04752490e+03
  4.57369510e+02  1.03948690e+02  2.92101550e+01  9.28666300e+00  3.16392700e+00
  7.86827240e+00  1.88128850e+00  5.44249300e-01  7.86827240e+00  1.88128850e+00
  5.44249300e-01  1.68714400e-01  1.68714400e-01  8.00000000e-01  4.38000000e-02
  4.38000000e-02  1.87311370e+01  2.82539370e+00  6.40121700e-01  1.61277800e-01
  1.87311370e+01  2.82539370e+00  6.40121700e-01  1.61277800e-01  1.87311370e+01
  2.82539370e+00  6.40121700e-01  1.61277800e-01  1.87311370e+01  2.82539370e+00
  6.40121700e-01  1.61277800e-01  1.87311370e+01  2.82539370e+00  6.40121700e-01
  1.61277800e-01
Contraction coefficients                   R   N=         331
  1.83470016e-03  1.40373012e-02  6.88426061e-02  2.32184421e-01  4.67941342e-01
  3.62312032e-01 -1.19332409e-01 -1.60854212e-01  1.14345648e+00  6.89990956e-02
  3.16423980e-01  7.44308252e-01  1.00000000e+00  1.00000000e+00  1.00000000e+00
  1.00000000e+00  1.00000000e+00  1.83470016e-03  1.40373012e-02  6.88426061e-02
  2.32184421e-01  4.67941342e-01  3.62312032e-01 -1.19332409e-01 -1.60854212e-01
  1.14345648e+00  6.89990956e-02  3.16423980e-01  7.44308252e-01  1.00000000e+00
  1.00000000e+00  1.00000000e+00  1.00000000e+00  1.00000000e+00  1.83470016e-03
  1.40373012e-02  6.88426061e-02  2.32184421e-01  4.67941342e-01  3.62312032e-01
 -1.19332409e-01 -1.60854212e-01  1.14345648e+00  6.89990956e-02  3.16423980e-01
  7.44308252e-01  1.00000000e+00  1.00000000e+00  1.00000000e+00  1.00000000e+00
  1.00000000e+00  1.83470016e-03  1.40373012e-02  6.88426061e-02  2.32184421e-01
  4.67941342e-01  3.62312032e-01 -1.19332409e-01 -1.60854212e-01  1.14345648e+00
  6.89990956e-02  3.16423980e-01  7.44308252e-01  1.00000000e+00  1.00000000e+00
  1.00000000e+00  1.00000000e+00  1.00000000e+00  1.83470016e-03  1.40373012e-02
  6.88426061e-02  2.32184421e-01  4.67941342e-01  3.62312032e-01 -1.19332409e-01
 -1.60854212e-01  1.14345648e+00  6.89990956e-02  3.16423980e-01  7.44308252e-01
  1.00000000e+00  1.00000000e+00  1.00000000e+00  1.00000000e+00  1.00000000e+00
  1.83470016e-03  1.40373012e-02  6.88426061e-02  2.32184421e-01  4.67941342e-01
  3.62312032e-01 -1.19332409e-01 -1.60854212e-01  1.14345648e+00  6.89990956e-02
  3.16423980e-01  7.44308252e-01  1.00000000e+00  1.00000000e+00  1.00000000e+00
  1.00000000e+00  1.00000000e+00  3.34945995e-02  2.34726947e-01  8.13757318e-01
  1.00000000e+00  3.34945995e-02  2.34726947e-01  8.13757318e-01  1.00000000e+00
  3.34945995e-02  2.34726947e-01  8.13757318e-01  1.00000000e+00  3.34945995e-02
  2.34726947e-01  8.13757318e-01  1.00000000e+00  3.34945995e-02  2.34726947e-01
  8.13757318e-01  1.00000000e+00  1.83470016e-03  1.40373012e-02  6.88426061e-02
  2.32184421e-01  4.67941342e-01  3.62312032e-01 -1.19332409e-01 -1.60854212e-01
  1.14345648e+00  6.89990956e-02  3.16423980e-01  7.44308252e-01  1.00000000e+00
  1.00000000e+00  1.00000000e+00  1.00000000e+00  1.00000000e+00  1.83109981e-03
  1.39500985e-02  6.84450927e-02  2.32714275e-01  4.70192950e-01  3.58520862e-01
 -1.10777504e-01 -1.48026305e-01  1.13076704e+00  7.08742995e-02  3.39752798e-01
  7.27158595e-01  1.00000000e+00  1.00000000e+00  1.00000000e+00  1.00000000e+00
  1.00000000e+00  1.83470016e-03  1.40373012e-02  6.88426061e-02  2.32184421e-01
  4.67941342e-01  3.62312032e-01 -1.19332409e-01 -1.60854212e-01  1.14345648e+00
  6.89990956e-02  3.16423980e-01  7.44308252e-01  1.00000000e+00  1.00000000e+00
  1.00000000e+00  1.00000000e+00  1.00000000e+00  1.83470016e-03  1.40373012e-02
  6.88426061e-02  2.32184421e-01  4.67941342e-01  3.62312032e-01 -1.19332409e-01
 -1.60854212e-01  1.14345648e+00  6.89990956e-02  3.16423980e-01  7.44308252e-01
  1.00000000e+00  1.00000000e+00  1.00000000e+00  1.00000000e+00  1.00000000e+00
  3.34945995e-02  2.34726947e-01  8.13757318e-01  1.00000000e+00  3.34945995e-02
  2.34726947e-01  8.13757318e-01  1.00000000e+00  3.34945995e-02  2.34726947e-01
  8.13757318e-01  1.00000000e+00  1.83479944e-03  1.39949958e-02  6.85869792e-02
  2.32240930e-01  4.69069858e-01  3.60454891e-01 -1.14961023e-01 -1.69118034e-01
  1.14585223e+00  6.75800232e-02  3.23907111e-01  7.40895255e-01  1.00000000e+00
  1.00000000e+00  1.00000000e+00  1.00000000e+00  1.00000000e+00  3.34945995e-02
  2.34726947e-01  8.13757318e-01  1.00000000e+00  1.83470016e-03  1.40373012e-02
  6.88426061e-02  2.32184421e-01  4.67941342e-01  3.62312032e-01 -1.19332409e-01
 -1.60854212e-01  1.14345648e+00  6.89990956e-02  3.16423980e-01  7.44308252e-01
  1.00000000e+00  1.00000000e+00  1.00000000e+00  1.00000000e+00  1.00000000e+00
  1.83470016e-03  1.40373012e-02  6.88426061e-02  2.32184421e-01  4.67941342e-01
  3.62312032e-01 -1.19332409e-01 -1.60854212e-01  1.14345648e+00  6.89990956e-02
  3.16423980e-01  7.44308252e-01  1.00000000e+00  1.00000000e+00  1.00000000e+00
  1.00000000e+00  1.00000000e+00  3.34945995e-02  2.34726947e-01  8.13757318e-01
  1.00000000e+00  3.34945995e-02  2.34726947e-01  8.13757318e-01  1.00000000e+00
  3.34945995e-02  2.34726947e-01  8.13757318e-01  1.00000000e+00  3.34945995e-02
  2.34726947e-01  8.13757318e-01  1.00000000e+00  3.34945995e-02  2.34726947e-01
  8.13757318e-01  1.00000000e+00  1.83470016e-03  1.40373012e-02  6.88426061e-02
  2.32184421e-01  4.67941342e-01  3.62312032e-01 -1.19332409e-01 -1.60854212e-01
  1.14345648e+00  6.89990956e-02  3.16423980e-01  7.44308252e-01  1.00000000e+00
  1.00000000e+00  1.00000000e+00  1.00000000e+00  1.00000000e+00  1.83470016e-03
  1.40373012e-02  6.88426061e-02  2.32184421e-01  4.67941342e-01  3.62312032e-01
 -1.19332409e-01 -1.60854212e-01  1.14345648e+00  6.89990956e-02  3.16423980e-01
  7.44308252e-01  1.00000000e+00  1.00000000e+00  1.00000000e+00  1.00000000e+00
  1.00000000e+00  3.34945995e-02  2.34726947e-01  8.13757318e-01  1.00000000e+00
  3.34945995e-02  2.34726947e-01  8.13757318e-01  1.00000000e+00  3.34945995e-02
  2.34726947e-01  8.13757318e-01  1.00000000e+00  3.34945995e-02  2.34726947e-01
  8.13757318e-01  1.00000000e+00  3.34945995e-02  2.34726947e-01  8.13757318e-01
  1.00000000e+00
Coordinates of each shell                  R   N=         474
  1.52666178e+00  8.97958869e-01  2.04598585e+00  1.52666178e+00  8.97958869e-01
  2.04598585e+00  1.52666178e+00  8.97958869e-01  2.04598585e+00  1.52666178e+00
  8.97958869e-01  2.04598585e+00  1.52666178e+00  8.97958869e-01  2.04598585e+00
  1.52666178e+00  8.97958869e-01  2.04598585e+00  1.52666178e+00  8.97958869e-01
  2.04598585e+00  1.52666178e+00  8.97958869e-01  2.04598585e+00  3.47658311e+00
  1.74304696e+00  3.64537011e+00  3.47658311e+00  1.74304696e+00  3.64537011e+00
  3.47658311e+00  1.74304696e+00  3.64537011e+00  3.47658311e+00  1.74304696e+00
  3.64537011e+00  3.47658311e+00  1.74304696e+00  3.64537011e+00  3.47658311e+00
  1.74304696e+00  3.64537011e+00  3.47658311e+00  1.74304696e+00  3.64537011e+00
  3.47658311e+00  1.74304696e+00  3.64537011e+00  4.65353153e-01 -1.50090137e+00
  2.46849891e+00  4.65353153e-01 -1.50090137e+00  2.46849891e+00  4.65353153e-01
 -1.50090137e+00  2.46849891e+00  4.65353153e-01 -1.50090137e+00  2.46849891e+00
  4.65353153e-01 -1.50090137e+00  2.46849891e+00  4.65353153e-01 -1.50090137e+00
  2.46849891e+00  4.65353153e-01 -1.50090137e+00  2.46849891e+00  4.65353153e-01
 -1.50090137e+00  2.46849891e+00  1.33564995e+00 -3.01079696e+00  4.45142693e+00
  1.33564995e+00 -3.01079696e+00  4.45142693e+00  1.33564995e+00 -3.01079696e+00
  4.45142693e+00  1.33564995e+00 -3.01079696e+00  4.45142693e+00  1.33564995e+00
 -3.01079696e+00  4.45142693e+00  1.33564995e+00 -3.01079696e+00  4.45142693e+00
  1.33564995e+00 -3.01079696e+00  4.45142693e+00  1.33564995e+00 -3.01079696e+00
  4.45142693e+00  3.26726251e+00 -2.14975170e+00  6.03205029e+00  3.26726251e+00
 -2.14975170e+00  6.03205029e+00  3.26726251e+00 -2.14975170e+00  6.03205029e+00
  3.26726251e+00 -2.14975170e+00  6.03205029e+00  3.26726251e+00 -2.14975170e+00
  6.03205029e+00  3.26726251e+00 -2.14975170e+00  6.03205029e+00  3.26726251e+00
 -2.14975170e+00  6.03205029e+00  3.26726251e+00 -2.14975170e+00  6.03205029e+00
  4.33894542e+00  2.34260088e-01  5.62186144e+00  4.33894542e+00  2.34260088e-01
  5.62186144e+00  4.33894542e+00  2.34260088e-01  5.62186144e+00  4.33894542e+00
  2.34260088e-01  5.62186144e+00  4.33894542e+00  2.34260088e-01  5.62186144e+00
  4.33894542e+00  2.34260088e-01  5.62186144e+00  4.33894542e+00  2.34260088e-01
  5.62186144e+00  4.33894542e+00  2.34260088e-01  5.62186144e+00 -9.96908457e-01
 -2.18690223e+00  1.20891405e+00 -9.96908457e-01 -2.18690223e+00  1.20891405e+00
  5.04848691e-01 -4.86471579e+00  4.75708520e+00  5.04848691e-01 -4.86471579e+00
  4.75708520e+00  4.28490330e+00  3.59722067e+00  3.30533900e+00  4.28490330e+00
  3.59722067e+00  3.30533900e+00  3.93893847e+00 -3.32896886e+00  7.57486316e+00
  3.93893847e+00 -3.32896886e+00  7.57486316e+00  5.84302285e+00  9.12102047e-01
  6.84583567e+00  5.84302285e+00  9.12102047e-01  6.84583567e+00  6.76676502e-01
  2.65282392e+00 -1.86871706e-02  6.76676502e-01  2.65282392e+00 -1.86871706e-02
  6.76676502e-01  2.65282392e+00 -1.86871706e-02  6.76676502e-01  2.65282392e+00
 -1.86871706e-02  6.76676502e-01  2.65282392e+00 -1.86871706e-02  6.76676502e-01
  2.65282392e+00 -1.86871706e-02  6.76676502e-01  2.65282392e+00 -1.86871706e-02
  6.76676502e-01  2.65282392e+00 -1.86871706e-02  1.76260596e+00  4.67428829e+00
 -3.35485119e-01  1.76260596e+00  4.67428829e+00 -3.35485119e-01  1.76260596e+00
  4.67428829e+00 -3.35485119e-01  1.76260596e+00  4.67428829e+00 -3.35485119e-01
  1.76260596e+00  4.67428829e+00 -3.35485119e-01  1.76260596e+00  4.67428829e+00
 -3.35485119e-01  1.76260596e+00  4.67428829e+00 -3.35485119e-01  1.76260596e+00
  4.67428829e+00 -3.35485119e-01 -1.67811809e+00  2.11271858e+00 -1.66418840e+00
 -1.67811809e+00  2.11271858e+00 -1.66418840e+00 -1.67811809e+00  2.11271858e+00
 -1.66418840e+00 -1.67811809e+00  2.11271858e+00 -1.66418840e+00 -1.67811809e+00
  2.11271858e+00 -1.66418840e+00 -1.67811809e+00  2.11271858e+00 -1.66418840e+00
 -1.67811809e+00  2.11271858e+00 -1.66418840e+00 -1.67811809e+00  2.11271858e+00
 -1.66418840e+00 -4.02858935e+00  2.58227182e+00 -5.97147837e-03 -4.02858935e+00
  2.58227182e+00 -5.97147837e-03 -4.02858935e+00  2.58227182e+00 -5.97147837e-03
 -4.02858935e+00  2.58227182e+00 -5.97147837e-03 -4.02858935e+00  2.58227182e+00
 -5.97147837e-03 -4.02858935e+00  2.58227182e+00 -5.97147837e-03 -4.02858935e+00
  2.58227182e+00 -5.97147837e-03 -4.02858935e+00  2.58227182e+00 -5.97147837e-03
 -4.21978683e+00  1.15883234e+00  1.48133557e+00 -4.21978683e+00  1.15883234e+00
  1.48133557e+00 -5.75799702e+00  2.58604318e+00 -1.13849259e+00 -5.75799702e+00
  2.58604318e+00 -1.13849259e+00 -3.87439024e+00  4.44344186e+00  8.87249793e-01
 -3.87439024e+00  4.44344186e+00  8.87249793e-01 -1.65941004e+00 -3.97201052e-01
 -2.87863752e+00 -1.65941004e+00 -3.97201052e-01 -2.87863752e+00 -1.65941004e+00
 -3.97201052e-01 -2.87863752e+00 -1.65941004e+00 -3.97201052e-01 -2.87863752e+00
 -1.65941004e+00 -3.97201052e-01 -2.87863752e+00 -1.65941004e+00 -3.97201052e-01
 -2.87863752e+00 -1.65941004e+00 -3.97201052e-01 -2.87863752e+00 -1.65941004e+00
 -3.97201052e-01 -2.87863752e+00 -1.62230301e+00  3.61878998e+00 -3.11175258e+00
 -1.62230301e+00  3.61878998e+00 -3.11175258e+00  6.70849258e-01 -7.95880001e-01
 -4.35597030e+00  6.70849258e-01 -7.95880001e-01 -4.35597030e+00  6.70849258e-01
 -7.95880001e-01 -4.35597030e+00  6.70849258e-01 -7.95880001e-01 -4.35597030e+00
  6.70849258e-01 -7.95880001e-01 -4.35597030e+00  6.70849258e-01 -7.95880001e-01
 -4.35597030e+00  6.70849258e-01 -7.95880001e-01 -4.35597030e+00  6.70849258e-01
 -7.95880001e-01 -4.35597030e+00  1.18670688e+00 -3.58303795e+00 -4.92481094e+00
  1.18670688e+00 -3.58303795e+00 -4.92481094e+00  1.18670688e+00 -3.58303795e+00
 -4.92481094e+00  1.18670688e+00 -3.58303795e+00 -4.92481094e+00  1.18670688e+00
 -3.58303795e+00 -4.92481094e+00  1.18670688e+00 -3.58303795e+00 -4.92481094e+00
  1.18670688e+00 -3.58303795e+00 -4.92481094e+00  1.18670688e+00 -3.58303795e+00
 -4.92481094e+00  2.26544258e+00 -5.97272004e-02 -3.26328970e+00  2.26544258e+00
 -5.97272004e-02 -3.26328970e+00  6.27239514e-01  3.06155274e-01 -6.13506969e+00
  6.27239514e-01  3.06155274e-01 -6.13506969e+00  1.36318701e+00 -4.66332343e+00
 -3.16740389e+00  1.36318701e+00 -4.66332343e+00 -3.16740389e+00  2.95691548e+00
 -3.76944815e+00 -5.98631153e+00  2.95691548e+00 -3.76944815e+00 -5.98631153e+00
 -3.12287566e-01 -4.44873731e+00 -6.06182993e+00 -3.12287566e-01 -4.44873731e+00
 -6.06182993e+00 -3.94684661e+00 -8.64515405e-01 -4.41824315e+00 -3.94684661e+00
 -8.64515405e-01 -4.41824315e+00 -3.94684661e+00 -8.64515405e-01 -4.41824315e+00
 -3.94684661e+00 -8.64515405e-01 -4.41824315e+00 -3.94684661e+00 -8.64515405e-01
 -4.41824315e+00 -3.94684661e+00 -8.64515405e-01 -4.41824315e+00 -3.94684661e+00
 -8.64515405e-01 -4.41824315e+00 -3.94684661e+00 -8.64515405e-01 -4.41824315e+00
 -5.83955896e+00 -2.66955092e+00 -3.17762699e+00 -5.83955896e+00 -2.66955092e+00
 -3.17762699e+00 -5.83955896e+00 -2.66955092e+00 -3.17762699e+00 -5.83955896e+00
 -2.66955092e+00 -3.17762699e+00 -5.83955896e+00 -2.66955092e+00 -3.17762699e+00
 -5.83955896e+00 -2.66955092e+00 -3.17762699e+00 -5.83955896e+00 -2.66955092e+00
 -3.17762699e+00 -5.83955896e+00 -2.66955092e+00 -3.17762699e+00 -3.36109520e+00
 -1.67809069e+00 -6.22999917e+00 -3.36109520e+00 -1.67809069e+00 -6.22999917e+00
 -4.87745917e+00  9.35318618e-01 -4.90045535e+00 -4.87745917e+00  9.35318618e-01
 -4.90045535e+00 -4.95447940e+00 -4.50638342e+00 -2.81511765e+00 -4.95447940e+00
 -4.50638342e+00 -2.81511765e+00 -7.47263255e+00 -2.96862082e+00 -4.42208155e+00
 -7.47263255e+00 -2.96862082e+00 -4.42208155e+00 -6.53623129e+00 -1.93765534e+00
 -1.37292189e+00 -6.53623129e+00 -1.93765534e+00 -1.37292189e+00
Total Energy                               R     -6.368103331139133e+02
Alpha Orbital Energies                     R   N=         323
 -1.91473662e+01 -1.43386885e+01 -1.02822949e+01 -1.02296241e+01 -1.02185944e+01
 -1.02166649e+01 -1.02095650e+01 -1.02089261e+01 -1.02045523e+01 -1.02042949e+01
 -1.02033226e+01 -1.02029107e+01 -1.01906768e+01 -1.01829065e+01 -1.01828927e+01
 -1.04563401e+00 -9.30280591e-01 -8.66713769e-01 -7.86880965e-01 -7.69190016e-01
 -7.61954992e-01 -7.56551474e-01 -7.20774658e-01 -6.62245434e-01 -6.32317469e-01