Generated by Psi4
     FORCE                           RHF                       TESTBAS
Number of atoms                            I               34
Charge                                     I                0
Multiplicity                               I                1
Number of electrons                        I              122
Number of alpha electrons                  I               61
Number of beta electrons                   I               61
Number of basis functions                  I              340
Number of independent functions            I              340
Atomic numbers                             I   N=          34
           8           6           6           6           7           6
           7           6           8           8           1           1
           6           6           6           1           1           6
           1           1           1           1           1           1
           1           6           1           1           1           6
           1           1           1           1
Nuclear charges                            R   N=          34
  8.00000000e+00  6.00000000e+00  6.00000000e+00  6.00000000e+00  7.00000000e+00
  6.00000000e+00  7.00000000e+00  6.00000000e+00  8.00000000e+00  8.00000000e+00
  1.00000000e+00  1.00000000e+00  6.00000000e+00  6.00000000e+00  6.00000000e+00
  1.00000000e+00  1.00000000e+00  6.00000000e+00  1.00000000e+00  1.00000000e+00
  1.00000000e+00  1.00000000e+00  1.00000000e+00  1.00000000e+00  1.00000000e+00
  6.00000000e+00  1.00000000e+00  1.00000000e+00  1.00000000e+00  6.00000000e+00
  1.00000000e+00  1.00000000e+00  1.00000000e+00  1.00000000e+00
Current cartesian coordinates              R   N=         102
  3.13529316e+00 -2.43070432e+00  7.86295260e-01 -1.16079063e+00 -2.13474723e+00
 -2.56913606e+00 -2.84166218e-01  1.01233559e-01 -8.92801355e-01  2.40738014e+00
 -3.75270979e-01  4.62669233e-02  4.02239607e+00  1.69923415e+00  1.53232634e-01
  3.65581206e+00  4.06373193e+00 -9.26938239e-01  1.34452553e+00  4.35579930e+00
 -2.13470881e+00 -5.66200128e-01  2.56797143e+00 -2.39306918e+00  5.23684094e+00
  5.73123947e+00 -8.41229727e-01 -2.42586834e+00  3.04712230e+00 -3.66116950e+00
  1.07989809e+00  6.03935886e+00 -3.01852951e+00  5.76666426e+00  1.39645415e+00
  8.96223091e-01  3.71326652e-01 -2.47541942e+00 -5.00718645e+00 -2.04639303e+00
  5.36479402e-01  1.48854301e+00 -1.93229807e+00 -1.30871853e+00  3.74339294e+00
 -3.97206389e+00  6.70924428e-01  7.42635169e-01 -1.59776323e+00  2.41991062e+00
  2.23775523e+00 -3.11071388e+00 -3.96592083e+00  3.48718539e+00 -3.14958628e+00
 -1.81356123e+00 -3.03484957e+00 -1.04263778e+00 -3.85900100e+00 -1.44567859e+00
  2.46708183e-01 -8.12496488e-01 -6.23556091e+00 -3.59102406e-01 -4.08832233e+00
 -6.08065403e+00  2.36847868e+00 -2.85656524e+00 -4.60924087e+00 -2.92500491e+00
 -3.41287895e-01  5.29520042e+00  3.03417056e-02 -1.51627308e+00  4.37473044e+00
 -2.78379501e+00 -5.39825501e+00  5.99481734e+00 -7.86257265e-01 -5.53162281e+00
  6.53131364e+00 -3.53221277e+00 -7.32591396e+00  5.85459737e+00 -3.79440674e+00
 -4.44209964e+00  7.53630113e+00 -5.91145034e+00 -3.88639930e+00  2.72377495e+00
 -2.06602427e+00 -5.02399885e+00  2.04329103e+00 -7.02242932e+00 -2.79518698e+00
  4.09781279e+00 -6.70741102e+00 -5.79904401e+00  2.65660502e+00 -6.20171717e+00
 -3.03388792e+00  8.59044183e-01
Integer atomic weights                     I   N=          34
          15          12          12          12          14          12
          14          12          15          15           1           1
          12          12          12           1           1          12
           1           1           1           1           1           1
           1          12           1           1           1          12
           1           1           1           1
Real atomic weights                        R   N=          34
  1.59949146e+01  1.20000000e+01  1.20000000e+01  1.20000000e+01  1.40030740e+01
  1.20000000e+01  1.40030740e+01  1.20000000e+01  1.59949146e+01  1.59949146e+01
  1.00782503e+00  1.00782503e+00  1.20000000e+01  1.20000000e+01  1.20000000e+01
  1.00782503e+00  1.00782503e+00  1.20000000e+01  1.00782503e+00  1.00782503e+00
  1.00782503e+00  1.00782503e+00  1.00782503e+00  1.00782503e+00  1.00782503e+00
  1.20000000e+01  1.00782503e+00  1.00782503e+00  1.00782503e+00  1.20000000e+01
  1.00782503e+00  1.00782503e+00  1.00782503e+00  1.00782503e+00
Number of primitive shells                 I              344
Number of contracted shells                I              164
Pure/Cartesian d shells                    I                1
Pure/Cartesian f shells                    I                1
Highest angular momentum                   I                2
Largest degree of contraction              I                6
Shell types                                I   N=         164
           0           0           1           0           1           2
           0           1           0           0           1           0
           1           2           0           1           0           0
           1           0           1           2           0           1
           0           0           1           0           1           2
           0           1           0           0           1           0
           1           2           0           1           0           0
           1           0           1           2           0           1
           0           0           1           0           1           2
           0           1           0           0           1           0
           1           2           0           1           0           0
           1           0           1           2           0           1
           0           0           1           0           1           2
           0           1           0           0           0           0
           0           0           1           0           1           2
           0           1           0           0           1           0
           1           2           0           1           0           0
           1           0           1           2           0           1
           0           0           0           0           0           0
           1           0           1           2           0           1
           0           0           0           0           0           0
           0           0           0           0           0           0
           0           0           0           0           1           0
           1           2           0           1           0           0
           0           0           0           0           0           0
           1           0           1           2           0           1
           0           0           0           0           0           0
           0           0
Number of primitives per shell             I   N=         164
           6           3           3           1           1           1
           1           1           6           3           3           1
           1           1           1           1           6           3
           3           1           1           1           1           1
           6           3           3           1           1           1
           1           1           6           3           3           1
           1           1           1           1           6           3
           3           1           1           1           1           1
           6           3           3           1           1           1
           1           1           6           3           3           1
           1           1           1           1           6           3
           3           1           1           1           1           1
           6           3           3           1           1           1
           1           1           3           1           3           1
           6           3           3           1           1           1
           1           1           6           3           3           1
           1           1           1           1           6           3
           3           1           1           1           1           1
           3           1           3           1           6           3
           3           1           1           1           1           1
           3           1           3           1           3           1
           3           1           3           1           3           1
           3           1           6           3           3           1
           1           1           1           1           3           1
           3           1           3           1           6           3
           3           1           1           1           1           1
           3           1           3           1           3           1
           3           1
Shell to atom map                          I   N=         164
           1           1           1           1           1           1
           1           1           2           2           2           2
           2           2           2           2           3           3
           3           3           3           3           3           3
           4           4           4           4           4           4
           4           4           5           5           5           5
           5           5           5           5           6           6
           6           6           6           6           6           6
           7           7           7           7           7           7
           7           7           8           8           8           8
           8           8           8           8           9           9
           9           9           9           9           9           9
          10          10          10          10          10          10
          10          10          11          11          12          12
          13          13          13          13          13          13
          13          13          14          14          14          14
          14          14          14          14          15          15
          15          15          15          15          15          15
          16          16          17          17          18          18
          18          18          18          18          18          18
          19          19          20          20          21          21
          22          22          23          23          24          24
          25          25          26          26          26          26
          26          26          26          26          27          27
          28          28          29          29          30          30
          30          30          30          30          30          30
          31          31          32          32          33          33
          34          34
Primitive exponents                        R   N=         344
  5.48467170e+03  8.25234950e+02  1.88046960e+02  5.29645000e+01  1.68975700e+01
  5.79963530e+00  1.55396160e+01  3.59993360e+00  1.01376180e+00  1.55396160e+01
  3.59993360e+00  1.01376180e+00  2.70005800e-01  2.70005800e-01  8.00000000e-01
  8.45000000e-02  8.45000000e-02  3.04752490e+03  4.57369510e+02  1.03948690e+02
  2.92101550e+01  9.28666300e+00  3.16392700e+00  7.86827240e+00  1.88128850e+00
  5.44249300e-01  7.86827240e+00  1.88128850e+00  5.44249300e-01  1.68714400e-01
  1.68714400e-01  8.00000000e-01  4.38000000e-02  4.38000000e-02  3.04752490e+03
  4.57369510e+02  1.03948690e+02  2.92101550e+01  9.28666300e+00  3.16392700e+00
  7.86827240e+00  1.88128850e+00  5.44249300e-01  7.86827240e+00  1.88128850e+00
  5.44249300e-01  1.68714400e-01  1.68714400e-01  8.00000000e-01  4.38000000e-02
  4.38000000e-02  3.04752490e+03  4.57369510e+02  1.03948690e+02  2.92101550e+01
  9.28666300e+00  3.16392700e+00  7.86827240e+00  1.88128850e+00  5.44249300e-01
  7.86827240e+00  1.88128850e+00  5.44249300e-01  1.68714400e-01  1.68714400e-01
  8.00000000e-01  4.38000000e-02  4.38000000e-02  4.17351100e+03  6.27457900e+02
  1.42902100e+02  4.02343300e+01  1.28202100e+01  4.39043700e+00  1.16263580e+01
  2.71628000e+00  7.72218000e-01  1.16263580e+01  2.71628000e+00  7.72218000e-01
  2.12031300e-01  2.12031300e-01  8.00000000e-01  6.39000000e-02  6.39000000e-02
  3.04752490e+03  4.57369510e+02  1.03948690e+02  2.92101550e+01  9.28666300e+00
  3.16392700e+00  7.86827240e+00  1.88128850e+00  5.44249300e-01  7.86827240e+00
  1.88128850e+00  5.44249300e-01  1.68714400e-01  1.68714400e-01  8.00000000e-01
  4.38000000e-02  4.38000000e-02  4.17351100e+03  6.27457900e+02  1.42902100e+02
  4.02343300e+01  1.28202100e+01  4.39043700e+00  1.16263580e+01  2.71628000e+00
  7.72218000e-01  1.16263580e+01  2.71628000e+00  7.72218000e-01  2.12031300e-01
  2.12031300e-01  8.00000000e-01  6.39000000e-02  6.39000000e-02  3.04752490e+03
  4.57369510e+02  1.03948690e+02  2.92101550e+01  9.28666300e+00  3.16392700e+00
  7.86827240e+00  1.88128850e+00  5.44249300e-01  7.86827240e+00  1.88128850e+00
  5.44249300e-01  1.68714400e-01  1.68714400e-01  8.00000000e-01  4.38000000e-02
  4.38000000e-02  5.48467170e+03  8.25234950e+02  1.88046960e+02  5.29645000e+01
  1.68975700e+01  5.79963530e+00  1.55396160e+01  3.59993360e+00  1.01376180e+00
  1.55396160e+01  3.59993360e+00  1.01376180e+00  2.70005800e-01  2.70005800e-01
  8.00000000e-01  8.45000000e-02  8.45000000e-02  5.48467170e+03  8.25234950e+02
  1.88046960e+02  5.29645000e+01  1.68975700e+01  5.79963530e+00  1.55396160e+01
  3.59993360e+00  1.01376180e+00  1.55396160e+01  3.59993360e+00  1.01376180e+00
  2.70005800e-01  2.70005800e-01  8.00000000e-01  8.45000000e-02  8.45000000e-02
  1.87311370e+01  2.82539370e+00  6.40121700e-01  1.61277800e-01  1.87311370e+01
  2.82539370e+00  6.40121700e-01  1.61277800e-01  3.04752490e+03  4.57369510e+02
  1.03948690e+02  2.92101550e+01  9.28666300e+00  3.16392700e+00  7.86827240e+00
  1.88128850e+00  5.44249300e-01  7.86827240e+00  1.88128850e+00  5.44249300e-01
  1.68714400e-01  1.68714400e-01  8.00000000e-01  4.38000000e-02  4.38000000e-02
  3.04752490e+03  4.57369510e+02  1.03948690e+02  2.92101550e+01  9.28666300e+00
  3.16392700e+00  7.86827240e+00  1.88128850e+00  5.44249300e-01  7.86827240e+00
  1.88128850e+00  5.44249300e-01  1.68714400e-01  1.68714400e-01  8.00000000e-01
  4.38000000e-02  4.38000000e-02  3.04752490e+03  4.57369510e+02  1.03948690e+02
  2.92101550e+01  9.28666300e+00  3.16392700e+00  7.86827240e+00  1.88128850e+00
  5.44249300e-01  7.86827240e+00  1.88128850e+00  5.44249300e-01  1.68714400e-01
  1.68714400e-01  8.00000000e-01  4.38000000e-02  4.38000000e-02  1.87311370e+01
  2.82539370e+00  6.40121700e-01  1.61277800e-01  1.87311370e+01  2.82539370e+00
  6.40121700e-01  1.61277800e-01  3.04752490e+03  4.57369510e+02  1.03948690e+02
  2.92101550e+01  9.28666300e+00  3.16392700e+00  7.86827240e+00  1.88128850e+00
  5.44249300e-01  7.86827240e+00  1.88128850e+00  5.44249300e-01  1.68714400e-01
  1.68714400e-01  8.00000000e-01  4.38000000e-02  4.38000000e-02  1.87311370e+01
  2.82539370e+00  6.40121700e-01  1.61277800e-01  1.87311370e+01  2.82539370e+00
  6.40121700e-01  1.61277800e-01  1.87311370e+01  2.82539370e+00  6.40121700e-01
  1.61277800e-01  1.87311370e+01  2.82539370e+00  6.40121700e-01  1.61277800e-01
  1.87311370e+01  2.82539370e+00  6.40121700e-01  1.61277800e-01  1.87311370e+01
  2.82539370e+00  6.40121700e-01  1.61277800e-01  1.87311370e+01  2.82539370e+00
  6.40121700e-01  1.61277800e-01  3.04752490e+03  4.57369510e+02  1.03948690e+02
  2.92101550e+01  9.28666300e+00  3.16392700e+00  7.86827240e+00  1.88128850e+00
  5.44249300e-01  7.86827240e+00  1.88128850e+00  5.44249300e-01  1.68714400e-01
  1.68714400e-01  8.00000000e-01  4.38000000e-02  4.38000000e-02  1.87311370e+01
  2.82539370e+00  6.40121700e-01  1.61277800e-01  1.87311370e+01  2.82539370e+00
  6.40121700e-01  1.61277800e-01  1.87311370e+01  2.82539370e+00  6.40121700e-01
  1.61277800e-01  3.04752490e+03  4.57369510e+02  1.03948690e+02  2.92101550e+01
  9.28666300e+00  3.16392700e+00  7.86827240e+00  1.88128850e+00  5.44249300e-01
  7.86827240e+00  1.88128850e+00  5.44249300e-01  1.68714400e-01  1.68714400e-01
  8.00000000e-01  4.38000000e-02  4.38000000e-02  1.87311370e+01  2.82539370e+00
  6.40121700e-01  1.61277800e-01  1.87311370e+01  2.82539370e+00  6.40121700e-01
  1.61277800e-01  1.87311370e+01  2.82539370e+00  6.40121700e-01  1.61277800e-01
  1.87311370e+01  2.82539370e+00  6.40121700e-01  1.61277800e-01
Contraction coefficients                   R   N=         344
  1.83109981e-03  1.39500985e-02  6.84450927e-02  2.32714275e-01  4.70192950e-01
  3.58520862e-01 -1.10777504e-01 -1.48026305e-01  1.13076704e+00  7.08742995e-02
  3.39752798e-01  7.27158595e-01  1.00000000e+00  1.00000000e+00  1.00000000e+00
  1.00000000e+00  1.00000000e+00  1.83470016e-03  1.40373012e-02  6.88426061e-02
  2.32184421e-01  4.67941342e-01  3.62312032e-01 -1.19332409e-01 -1.60854212e-01
  1.14345648e+00  6.89990956e-02  3.16423980e-01  7.44308252e-01  1.00000000e+00
  1.00000000e+00  1.00000000e+00  1.00000000e+00  1.00000000e+00  1.83470016e-03
  1.40373012e-02  6.88426061e-02  2.32184421e-01  4.67941342e-01  3.62312032e-01
 -1.19332409e-01 -1.60854212e-01  1.14345648e+00  6.89990956e-02  3.16423980e-01
  7.44308252e-01  1.00000000e+00  1.00000000e+00  1.00000000e+00  1.00000000e+00
  1.00000000e+00  1.83470016e-03  1.40373012e-02  6.88426061e-02  2.32184421e-01
  4.67941342e-01  3.62312032e-01 -1.19332409e-01 -1.60854212e-01  1.14345648e+00
  6.89990956e-02  3.16423980e-01  7.44308252e-01  1.00000000e+00  1.00000000e+00
  1.00000000e+00  1.00000000e+00  1.00000000e+00  1.83479944e-03  1.39949958e-02
  6.85869792e-02  2.32240930e-01  4.69069858e-01  3.60454891e-01 -1.14961023e-01
 -1.69118034e-01  1.14585223e+00  6.75800232e-02  3.23907111e-01  7.40895255e-01
  1.00000000e+00  1.00000000e+00  1.00000000e+00  1.00000000e+00  1.00000000e+00
  1.83470016e-03  1.40373012e-02  6.88426061e-02  2.32184421e-01  4.67941342e-01
  3.62312032e-01 -1.19332409e-01 -1.60854212e-01  1.14345648e+00  6.89990956e-02
  3.16423980e-01  7.44308252e-01  1.00000000e+00  1.00000000e+00  1.00000000e+00
  1.00000000e+00  1.00000000e+00  1.83479944e-03  1.39949958e-02  6.85869792e-02
  2.32240930e-01  4.69069858e-01  3.60454891e-01 -1.14961023e-01 -1.69118034e-01
  1.14585223e+00  6.75800232e-02  3.23907111e-01  7.40895255e-01  1.00000000e+00
  1.00000000e+00  1.00000000e+00  1.00000000e+00  1.00000000e+00  1.83470016e-03
  1.40373012e-02  6.88426061e-02  2.32184421e-01  4.67941342e-01  3.62312032e-01
 -1.19332409e-01 -1.60854212e-01  1.14345648e+00  6.89990956e-02  3.16423980e-01
  7.44308252e-01  1.00000000e+00  1.00000000e+00  1.00000000e+00  1.00000000e+00
  1.00000000e+00  1.83109981e-03  1.39500985e-02  6.84450927e-02  2.32714275e-01
  4.70192950e-01  3.58520862e-01 -1.10777504e-01 -1.48026305e-01  1.13076704e+00
  7.08742995e-02  3.39752798e-01  7.27158595e-01  1.00000000e+00  1.00000000e+00
  1.00000000e+00  1.00000000e+00  1.00000000e+00  1.83109981e-03  1.39500985e-02
  6.84450927e-02  2.32714275e-01  4.70192950e-01  3.58520862e-01 -1.10777504e-01
 -1.48026305e-01  1.13076704e+00  7.08742995e-02  3.39752798e-01  7.27158595e-01
  1.00000000e+00  1.00000000e+00  1.00000000e+00  1.00000000e+00  1.00000000e+00
  3.34945995e-02  2.34726947e-01  8.13757318e-01  1.00000000e+00  3.34945995e-02
  2.34726947e-01  8.13757318e-01  1.00000000e+00  1.83470016e-03  1.40373012e-02
  6.88426061e-02  2.32184421e-01  4.67941342e-01  3.62312032e-01 -1.19332409e-01
 -1.60854212e-01  1.14345648e+00  6.89990956e-02  3.16423980e-01  7.44308252e-01
  1.00000000e+00  1.00000000e+00  1.00000000e+00  1.00000000e+00  1.00000000e+00
  1.83470016e-03  1.40373012e-02  6.88426061e-02  2.32184421e-01  4.67941342e-01
  3.62312032e-01 -1.19332409e-01 -1.60854212e-01  1.14345648e+00  6.89990956e-02
  3.16423980e-01  7.44308252e-01  1.00000000e+00  1.00000000e+00  1.00000000e+00
  1.00000000e+00  1.00000000e+00  1.83470016e-03  1.40373012e-02  6.88426061e-02
  2.32184421e-01  4.67941342e-01  3.62312032e-01 -1.19332409e-01 -1.60854212e-01
  1.14345648e+00  6.89990956e-02  3.16423980e-01  7.44308252e-01  1.00000000e+00
  1.00000000e+00  1.00000000e+00  1.00000000e+00  1.00000000e+00  3.34945995e-02
  2.34726947e-01  8.13757318e-01  1.00000000e+00  3.34945995e-02  2.34726947e-01
  8.13757318e-01  1.00000000e+00  1.83470016e-03  1.40373012e-02  6.88426061e-02
  2.32184421e-01  4.67941342e-01  3.62312032e-01 -1.19332409e-01 -1.60854212e-01
  1.14345648e+00  6.89990956e-02  3.16423980e-01  7.44308252e-01  1.00000000e+00
  1.00000000e+00  1.00000000e+00  1.00000000e+00  1.00000000e+00  3.34945995e-02
  2.34726947e-01  8.13757318e-01  1.00000000e+00  3.34945995e-02  2.34726947e-01
  8.13757318e-01  1.00000000e+00  3.34945995e-02  2.34726947e-01  8.13757318e-01
  1.00000000e+00  3.34945995e-02  2.34726947e-01  8.13757318e-01  1.00000000e+00
  3.34945995e-02  2.34726947e-01  8.13757318e-01  1.00000000e+00  3.34945995e-02
  2.34726947e-01  8.13757318e-01  1.00000000e+00  3.34945995e-02  2.34726947e-01
  8.13757318e-01  1.00000000e+00  1.83470016e-03  1.40373012e-02  6.88426061e-02
  2.32184421e-01  4.67941342e-01  3.62312032e-01 -1.19332409e-01 -1.60854212e-01
  1.14345648e+00  6.89990956e-02  3.16423980e-01  7.44308252e-01  1.00000000e+00
  1.00000000e+00  1.00000000e+00  1.00000000e+00  1.00000000e+00  3.34945995e-02
  2.34726947e-01  8.13757318e-01  1.00000000e+00  3.34945995e-02  2.34726947e-01
  8.13757318e-01  1.00000000e+00  3.34945995e-02  2.34726947e-01  8.13757318e-01
  1.00000000e+00  1.83470016e-03  1.40373012e-02  6.88426061e-02  2.32184421e-01
  4.67941342e-01  3.62312032e-01 -1.19332409e-01 -1.60854212e-01  1.14345648e+00
  6.89990956e-02  3.16423980e-01  7.44308252e-01  1.00000000e+00  1.00000000e+00
  1.00000000e+00  1.00000000e+00  1.00000000e+00  3.34945995e-02  2.34726947e-01
  8.13757318e-01  1.00000000e+00  3.34945995e-02  2.34726947e-01  8.13757318e-01
  1.00000000e+00  3.34945995e-02  2.34726947e-01  8.13757318e-01  1.00000000e+00
  3.34945995e-02  2.34726947e-01  8.13757318e-01  1.00000000e+00
Coordinates of each shell                  R   N=         492
  3.13529316e+00 -2.43070432e+00  7.86295260e-01  3.13529316e+00 -2.43070432e+00
  7.86295260e-01  3.13529316e+00 -2.43070432e+00  7.86295260e-01  3.13529316e+00
 -2.43070432e+00  7.86295260e-01  3.13529316e+00 -2.43070432e+00  7.86295260e-01
  3.13529316e+00 -2.43070432e+00  7.86295260e-01  3.13529316e+00 -2.43070432e+00
  7.86295260e-01  3.13529316e+00 -2.43070432e+00  7.86295260e-01 -1.16079063e+00
 -2.13474723e+00 -2.56913606e+00 -1.16079063e+00 -2.13474723e+00 -2.56913606e+00
 -1.16079063e+00 -2.13474723e+00 -2.56913606e+00 -1.16079063e+00 -2.13474723e+00
 -2.56913606e+00 -1.16079063e+00 -2.13474723e+00 -2.56913606e+00 -1.16079063e+00
 -2.13474723e+00 -2.56913606e+00 -1.16079063e+00 -2.13474723e+00 -2.56913606e+00
 -1.16079063e+00 -2.13474723e+00 -2.56913606e+00 -2.84166218e-01  1.01233559e-01
 -8.92801355e-01 -2.84166218e-01  1.01233559e-01 -8.92801355e-01 -2.84166218e-01
  1.01233559e-01 -8.92801355e-01 -2.84166218e-01  1.01233559e-01 -8.92801355e-01
 -2.84166218e-01  1.01233559e-01 -8.92801355e-01 -2.84166218e-01  1.01233559e-01
 -8.92801355e-01 -2.84166218e-01  1.01233559e-01 -8.92801355e-01 -2.84166218e-01
  1.01233559e-01 -8.92801355e-01  2.40738014e+00 -3.75270979e-01  4.62669233e-02
  2.40738014e+00 -3.75270979e-01  4.62669233e-02  2.40738014e+00 -3.75270979e-01
  4.62669233e-02  2.40738014e+00 -3.75270979e-01  4.62669233e-02  2.40738014e+00
 -3.75270979e-01  4.62669233e-02  2.40738014e+00 -3.75270979e-01  4.62669233e-02
  2.40738014e+00 -3.75270979e-01  4.62669233e-02  2.40738014e+00 -3.75270979e-01
  4.62669233e-02  4.02239607e+00  1.69923415e+00  1.53232634e-01  4.02239607e+00
  1.69923415e+00  1.53232634e-01  4.02239607e+00  1.69923415e+00  1.53232634e-01
  4.02239607e+00  1.69923415e+00  1.53232634e-01  4.02239607e+00  1.69923415e+00
  1.53232634e-01  4.02239607e+00  1.69923415e+00  1.53232634e-01  4.02239607e+00
  1.69923415e+00  1.53232634e-01  4.02239607e+00  1.69923415e+00  1.53232634e-01
  3.65581206e+00  4.06373193e+00 -9.26938239e-01  3.65581206e+00  4.06373193e+00
 -9.26938239e-01  3.65581206e+00  4.06373193e+00 -9.26938239e-01  3.65581206e+00
  4.06373193e+00 -9.26938239e-01  3.65581206e+00  4.06373193e+00 -9.26938239e-01
  3.65581206e+00  4.06373193e+00 -9.26938239e-01  3.65581206e+00  4.06373193e+00
 -9.26938239e-01  3.65581206e+00  4.06373193e+00 -9.26938239e-01  1.34452553e+00
  4.35579930e+00 -2.13470881e+00  1.34452553e+00  4.35579930e+00 -2.13470881e+00
  1.34452553e+00  4.35579930e+00 -2.13470881e+00  1.34452553e+00  4.35579930e+00
 -2.13470881e+00  1.34452553e+00  4.35579930e+00 -2.13470881e+00  1.34452553e+00
  4.35579930e+00 -2.13470881e+00  1.34452553e+00  4.35579930e+00 -2.13470881e+00
  1.34452553e+00  4.35579930e+00 -2.13470881e+00 -5.66200128e-01  2.56797143e+00
 -2.39306918e+00 -5.66200128e-01  2.56797143e+00 -2.39306918e+00 -5.66200128e-01
  2.56797143e+00 -2.39306918e+00 -5.66200128e-01  2.56797143e+00 -2.39306918e+00
 -5.66200128e-01  2.56797143e+00 -2.39306918e+00 -5.66200128e-01  2.56797143e+00
 -2.39306918e+00 -5.66200128e-01  2.56797143e+00 -2.39306918e+00 -5.66200128e-01
  2.56797143e+00 -2.39306918e+00  5.23684094e+00  5.73123947e+00 -8.41229727e-01
  5.23684094e+00  5.73123947e+00 -8.41229727e-01  5.23684094e+00  5.73123947e+00
 -8.41229727e-01  5.23684094e+00  5.73123947e+00 -8.41229727e-01  5.23684094e+00
  5.73123947e+00 -8.41229727e-01  5.23684094e+00  5.73123947e+00 -8.41229727e-01
  5.23684094e+00  5.73123947e+00 -8.41229727e-01  5.23684094e+00  5.73123947e+00
 -8.41229727e-01 -2.42586834e+00  3.04712230e+00 -3.66116950e+00 -2.42586834e+00
  3.04712230e+00 -3.66116950e+00 -2.42586834e+00  3.04712230e+00 -3.66116950e+00
 -2.42586834e+00  3.04712230e+00 -3.66116950e+00 -2.42586834e+00  3.04712230e+00
 -3.66116950e+00 -2.42586834e+00  3.04712230e+00 -3.66116950e+00 -2.42586834e+00
  3.04712230e+00 -3.66116950e+00 -2.42586834e+00  3.04712230e+00 -3.66116950e+00
  1.07989809e+00  6.03935886e+00 -3.01852951e+00  1.07989809e+00  6.03935886e+00
 -3.01852951e+00  5.76666426e+00  1.39645415e+00  8.96223091e-01  5.76666426e+00
  1.39645415e+00  8.96223091e-01  3.71326652e-01 -2.47541942e+00 -5.00718645e+00
  3.71326652e-01 -2.47541942e+00 -5.00718645e+00  3.71326652e-01 -2.47541942e+00
 -5.00718645e+00  3.71326652e-01 -2.47541942e+00 -5.00718645e+00  3.71326652e-01
 -2.47541942e+00 -5.00718645e+00  3.71326652e-01 -2.47541942e+00 -5.00718645e+00
  3.71326652e-01 -2.47541942e+00 -5.00718645e+00  3.71326652e-01 -2.47541942e+00
 -5.00718645e+00 -2.04639303e+00  5.36479402e-01  1.48854301e+00 -2.04639303e+00
  5.36479402e-01  1.48854301e+00 -2.04639303e+00  5.36479402e-01  1.48854301e+00
 -2.04639303e+00  5.36479402e-01  1.48854301e+00 -2.04639303e+00  5.36479402e-01
  1.48854301e+00 -2.04639303e+00  5.36479402e-01  1.48854301e+00 -2.04639303e+00
  5.36479402e-01  1.48854301e+00 -2.04639303e+00  5.36479402e-01  1.48854301e+00
 -1.93229807e+00 -1.30871853e+00  3.74339294e+00 -1.93229807e+00 -1.30871853e+00
  3.74339294e+00 -1.93229807e+00 -1.30871853e+00  3.74339294e+00 -1.93229807e+00
 -1.30871853e+00  3.74339294e+00 -1.93229807e+00 -1.30871853e+00  3.74339294e+00
 -1.93229807e+00 -1.30871853e+00  3.74339294e+00 -1.93229807e+00 -1.30871853e+00
  3.74339294e+00 -1.93229807e+00 -1.30871853e+00  3.74339294e+00 -3.97206389e+00
  6.70924428e-01  7.42635169e-01 -3.97206389e+00  6.70924428e-01  7.42635169e-01
 -1.59776323e+00  2.41991062e+00  2.23775523e+00 -1.59776323e+00  2.41991062e+00
  2.23775523e+00 -3.11071388e+00 -3.96592083e+00  3.48718539e+00 -3.11071388e+00
 -3.96592083e+00  3.48718539e+00 -3.11071388e+00 -3.96592083e+00  3.48718539e+00
 -3.11071388e+00 -3.96592083e+00  3.48718539e+00 -3.11071388e+00 -3.96592083e+00
  3.48718539e+00 -3.11071388e+00 -3.96592083e+00  3.48718539e+00 -3.11071388e+00
 -3.96592083e+00  3.48718539e+00 -3.11071388e+00 -3.96592083e+00  3.48718539e+00
 -3.14958628e+00 -1.81356123e+00 -3.03484957e+00 -3.14958628e+00 -1.81356123e+00
 -3.03484957e+00 -1.04263778e+00 -3.85900100e+00 -1.44567859e+00 -1.04263778e+00
 -3.85900100e+00 -1.44567859e+00  2.46708183e-01 -8.12496488e-01 -6.23556091e+00
  2.46708183e-01 -8.12496488e-01 -6.23556091e+00 -3.59102406e-01 -4.08832233e+00
 -6.08065403e+00 -3.59102406e-01 -4.08832233e+00 -6.08065403e+00  2.36847868e+00
 -2.85656524e+00 -4.60924087e+00  2.36847868e+00 -2.85656524e+00 -4.60924087e+00
 -2.92500491e+00 -3.41287895e-01  5.29520042e+00 -2.92500491e+00 -3.41287895e-01
  5.29520042e+00  3.03417056e-02 -1.51627308e+00  4.37473044e+00  3.03417056e-02
 -1.51627308e+00  4.37473044e+00 -2.78379501e+00 -5.39825501e+00  5.99481734e+00
 -2.78379501e+00 -5.39825501e+00  5.99481734e+00 -2.78379501e+00 -5.39825501e+00
  5.99481734e+00 -2.78379501e+00 -5.39825501e+00  5.99481734e+00 -2.78379501e+00
 -5.39825501e+00  5.99481734e+00 -2.78379501e+00 -5.39825501e+00  5.99481734e+00
 -2.78379501e+00 -5.39825501e+00  5.99481734e+00 -2.78379501e+00 -5.39825501e+00
  5.99481734e+00 -7.86257265e-01 -5.53162281e+00  6.53131364e+00 -7.86257265e-01
 -5.53162281e+00  6.53131364e+00 -3.53221277e+00 -7.32591396e+00  5.85459737e+00
 -3.53221277e+00 -7.32591396e+00  5.85459737e+00 -3.79440674e+00 -4.44209964e+00
  7.53630113e+00 -3.79440674e+00 -4.44209964e+00  7.53630113e+00 -5.91145034e+00
 -3.88639930e+00  2.72377495e+00 -5.91145034e+00 -3.88639930e+00  2.72377495e+00
 -5.91145034e+00 -3.88639930e+00  2.72377495e+00 -5.91145034e+00 -3.88639930e+00
  2.72377495e+00 -5.91145034e+00 -3.88639930e+00  2.72377495e+00 -5.91145034e+00
 -3.88639930e+00  2.72377495e+00 -5.91145034e+00 -3.88639930e+00  2.72377495e+00
 -5.91145034e+00 -3.88639930e+00  2.72377495e+00 -2.06602427e+00 -5.02399885e+00