Generated by Psi4
     FORCE                           RHF                       TESTBAS
Number of atoms                            I               20
Charge                                     I                0
Multiplicity                               I                1
Number of electrons                        I               66
Number of alpha electrons                  I               33
Number of beta electrons                   I               33
Number of basis functions                  I              193
Number of independent functions            I              193
Atomic numbers                             I   N=          20
           6           6           6           1           1           7
           6           6           6           6           6           1
           1           1           1           1           1           1
           1           1
Nuclear charges                            R   N=          20
  6.00000000e+00  6.00000000e+00  6.00000000e+00  1.00000000e+00  1.00000000e+00
  7.00000000e+00  6.00000000e+00  6.00000000e+00  6.00000000e+00  6.00000000e+00
  6.00000000e+00  1.00000000e+00  1.00000000e+00  1.00000000e+00  1.00000000e+00
  1.00000000e+00  1.00000000e+00  1.00000000e+00  1.00000000e+00  1.00000000e+00
Current cartesian coordinates              R   N=          60
  3.45772684e-01 -6.43863961e-01  3.46737624e-02 -1.48761125e+00 -1.70872126e+00
  1.95360916e+00 -3.59250191e+00  1.88728492e-01  2.69190149e+00 -4.67113898e-01
 -2.26758088e+00  3.67375018e+00 -2.37933858e+00 -3.42758825e+00  1.20323386e+00
 -5.43897315e+00 -7.11736188e-01  4.54372090e+00  2.50578151e+00  6.86983922e-01
  8.07225658e-01  4.15736677e+00  1.74631192e+00 -9.60023107e-01  3.67521449e+00
  1.49113568e+00 -3.54453267e+00  1.53267194e+00  1.68322051e-01 -4.34279619e+00
 -1.11748741e-01 -8.86736479e-01 -2.56641734e+00  2.90453372e+00  8.85423309e-01
  2.81564707e+00 -1.76853712e+00 -1.92422977e+00 -3.20736867e+00  5.82413108e+00
  2.76240325e+00 -3.18322471e-01  4.96061601e+00  2.30807008e+00 -4.92296802e+00
  1.14511706e+00 -5.06561425e-02 -6.34883057e+00 -4.58316641e+00 -1.19868391e+00
  6.19787199e+00 -6.35919307e+00 -2.27644842e+00  3.90292301e+00 -4.62741544e+00
  7.57374057e-01  9.88082913e-01 -2.72345782e+00  1.91220369e+00  3.44807513e+00
Integer atomic weights                     I   N=          20
          12          12          12           1           1          14
          12          12          12          12          12           1
           1           1           1           1           1           1
           1           1
Real atomic weights                        R   N=          20
  1.20000000e+01  1.20000000e+01  1.20000000e+01  1.00782503e+00  1.00782503e+00
  1.40030740e+01  1.20000000e+01  1.20000000e+01  1.20000000e+01  1.20000000e+01
  1.20000000e+01  1.00782503e+00  1.00782503e+00  1.00782503e+00  1.00782503e+00
  1.00782503e+00  1.00782503e+00  1.00782503e+00  1.00782503e+00  1.00782503e+00
Number of primitive shells                 I              197
Number of contracted shells                I               94
Pure/Cartesian d shells                    I                1
Pure/Cartesian f shells                    I                1
Highest angular momentum                   I                2
Largest degree of contraction              I                6
Shell types                                I   N=          94
           0           0           1           0           1           2
           0           1           0           0           1           0
           1           2           0           1           0           0
           1           0           1           2           0           1
           0           0           0           0           0           0
           1           0           1           2           0           1
           0           0           1           0           1           2
           0           1           0           0           1           0
           1           2           0           1           0           0
           1           0           1           2           0           1
           0           0           1           0           1           2
           0           1           0           0           1           0
           1           2           0           1           0           0
           0           0           0           0           0           0
           0           0           0           0           0           0
           0           0           0           0
Number of primitives per shell             I   N=          94
           6           3           3           1           1           1
           1           1           6           3           3           1
           1           1           1           1           6           3
           3           1           1           1           1           1
           3           1           3           1           6           3
           3           1           1           1           1           1
           6           3           3           1           1           1
           1           1           6           3           3           1
           1           1           1           1           6           3
           3           1           1           1           1           1
           6           3           3           1           1           1
           1           1           6           3           3           1
           1           1           1           1           3           1
           3           1           3           1           3           1
           3           1           3           1           3           1
           3           1           3           1
Shell to atom map                          I   N=          94
           1           1           1           1           1           1
           1           1           2           2           2           2
           2           2           2           2           3           3
           3           3           3           3           3           3
           4           4           5           5           6           6
           6           6           6           6           6           6
           7           7           7           7           7           7
           7           7           8           8           8           8
           8           8           8           8           9           9
           9           9           9           9           9           9
          10          10          10          10          10          10
          10          10          11          11          11          11
          11          11          11          11          12          12
          13          13          14          14          15          15
          16          16          17          17          18          18
          19          19          20          20
Primitive exponents                        R   N=         197
  3.04752490e+03  4.57369510e+02  1.03948690e+02  2.92101550e+01  9.28666300e+00
  3.16392700e+00  7.86827240e+00  1.88128850e+00  5.44249300e-01  7.86827240e+00
  1.88128850e+00  5.44249300e-01  1.68714400e-01  1.68714400e-01  8.00000000e-01
  4.38000000e-02  4.38000000e-02  3.04752490e+03  4.57369510e+02  1.03948690e+02
  2.92101550e+01  9.28666300e+00  3.16392700e+00  7.86827240e+00  1.88128850e+00
  5.44249300e-01  7.86827240e+00  1.88128850e+00  5.44249300e-01  1.68714400e-01
  1.68714400e-01  8.00000000e-01  4.38000000e-02  4.38000000e-02  3.04752490e+03
  4.57369510e+02  1.03948690e+02  2.92101550e+01  9.28666300e+00  3.16392700e+00
  7.86827240e+00  1.88128850e+00  5.44249300e-01  7.86827240e+00  1.88128850e+00
  5.44249300e-01  1.68714400e-01  1.68714400e-01  8.00000000e-01  4.38000000e-02
  4.38000000e-02  1.87311370e+01  2.82539370e+00  6.40121700e-01  1.61277800e-01
  1.87311370e+01  2.82539370e+00  6.40121700e-01  1.61277800e-01  4.17351100e+03
  6.27457900e+02  1.42902100e+02  4.02343300e+01  1.28202100e+01  4.39043700e+00
  1.16263580e+01  2.71628000e+00  7.72218000e-01  1.16263580e+01  2.71628000e+00
  7.72218000e-01  2.12031300e-01  2.12031300e-01  8.00000000e-01  6.39000000e-02
  6.39000000e-02  3.04752490e+03  4.57369510e+02  1.03948690e+02  2.92101550e+01
  9.28666300e+00  3.16392700e+00  7.86827240e+00  1.88128850e+00  5.44249300e-01
  7.86827240e+00  1.88128850e+00  5.44249300e-01  1.68714400e-01  1.68714400e-01
  8.00000000e-01  4.38000000e-02  4.38000000e-02  3.04752490e+03  4.57369510e+02
  1.03948690e+02  2.92101550e+01  9.28666300e+00  3.16392700e+00  7.86827240e+00
  1.88128850e+00  5.44249300e-01  7.86827240e+00  1.88128850e+00  5.44249300e-01
  1.68714400e-01  1.68714400e-01  8.00000000e-01  4.38000000e-02  4.38000000e-02
  3.04752490e+03  4.57369510e+02  1.03948690e+02  2.92101550e+01  9.28666300e+00
  3.16392700e+00  7.86827240e+00  1.88128850e+00  5.44249300e-01  7.86827240e+00
  1.88128850e+00  5.44249300e-01  1.68714400e-01  1.68714400e-01  8.00000000e-01
  4.38000000e-02  4.38000000e-02  3.04752490e+03  4.57369510e+02  1.03948690e+02
  2.92101550e+01  9.28666300e+00  3.16392700e+00  7.86827240e+00  1.88128850e+00
  5.44249300e-01  7.86827240e+00  1.88128850e+00  5.44249300e-01  1.68714400e-01
  1.68714400e-01  8.00000000e-01  4.38000000e-02  4.38000000e-02  3.04752490e+03
  4.57369510e+02  1.03948690e+02  2.92101550e+01  9.28666300e+00  3.16392700e+00
  7.86827240e+00  1.88128850e+00  5.44249300e-01  7.86827240e+00  1.88128850e+00
  5.44249300e-01  1.68714400e-01  1.68714400e-01  8.00000000e-01  4.38000000e-02
  4.38000000e-02  1.87311370e+01  2.82539370e+00  6.40121700e-01  1.61277800e-01
  1.87311370e+01  2.82539370e+00  6.40121700e-01  1.61277800e-01  1.87311370e+01
  2.82539370e+00  6.40121700e-01  1.61277800e-01  1.87311370e+01  2.82539370e+00
  6.40121700e-01  1.61277800e-01  1.87311370e+01  2.82539370e+00  6.40121700e-01
  1.61277800e-01  1.87311370e+01  2.82539370e+00  6.40121700e-01  1.61277800e-01
  1.87311370e+01  2.82539370e+00  6.40121700e-01  1.61277800e-01  1.87311370e+01
  2.82539370e+00  6.40121700e-01  1.61277800e-01  1.87311370e+01  2.82539370e+00
  6.40121700e-01  1.61277800e-01
Contraction coefficients                   R   N=         197
  1.83470016e-03  1.40373012e-02  6.88426061e-02  2.32184421e-01  4.67941342e-01
  3.62312032e-01 -1.19332409e-01 -1.60854212e-01  1.14345648e+00  6.89990956e-02
  3.16423980e-01  7.44308252e-01  1.00000000e+00  1.00000000e+00  1.00000000e+00
  1.00000000e+00  1.00000000e+00  1.83470016e-03  1.40373012e-02  6.88426061e-02
  2.32184421e-01  4.67941342e-01  3.62312032e-01 -1.19332409e-01 -1.60854212e-01
  1.14345648e+00  6.89990956e-02  3.16423980e-01  7.44308252e-01  1.00000000e+00
  1.00000000e+00  1.00000000e+00  1.00000000e+00  1.00000000e+00  1.83470016e-03
  1.40373012e-02  6.88426061e-02  2.32184421e-01  4.67941342e-01  3.62312032e-01
 -1.19332409e-01 -1.60854212e-01  1.14345648e+00  6.89990956e-02  3.16423980e-01
  7.44308252e-01  1.00000000e+00  1.00000000e+00  1.00000000e+00  1.00000000e+00
  1.00000000e+00  3.34945995e-02  2.34726947e-01  8.13757318e-01  1.00000000e+00
  3.34945995e-02  2.34726947e-01  8.13757318e-01  1.00000000e+00  1.83479944e-03
  1.39949958e-02  6.85869792e-02  2.32240930e-01  4.69069858e-01  3.60454891e-01
 -1.14961023e-01 -1.69118034e-01  1.14585223e+00  6.75800232e-02  3.23907111e-01
  7.40895255e-01  1.00000000e+00  1.00000000e+00  1.00000000e+00  1.00000000e+00
  1.00000000e+00  1.83470016e-03  1.40373012e-02  6.88426061e-02  2.32184421e-01
  4.67941342e-01  3.62312032e-01 -1.19332409e-01 -1.60854212e-01  1.14345648e+00
  6.89990956e-02  3.16423980e-01  7.44308252e-01  1.00000000e+00  1.00000000e+00
  1.00000000e+00  1.00000000e+00  1.00000000e+00  1.83470016e-03  1.40373012e-02
  6.88426061e-02  2.32184421e-01  4.67941342e-01  3.62312032e-01 -1.19332409e-01
 -1.60854212e-01  1.14345648e+00  6.89990956e-02  3.16423980e-01  7.44308252e-01
  1.00000000e+00  1.00000000e+00  1.00000000e+00  1.00000000e+00  1.00000000e+00
  1.83470016e-03  1.40373012e-02  6.88426061e-02  2.32184421e-01  4.67941342e-01
  3.62312032e-01 -1.19332409e-01 -1.60854212e-01  1.14345648e+00  6.89990956e-02
  3.16423980e-01  7.44308252e-01  1.00000000e+00  1.00000000e+00  1.00000000e+00
  1.00000000e+00  1.00000000e+00  1.83470016e-03  1.40373012e-02  6.88426061e-02
  2.32184421e-01  4.67941342e-01  3.62312032e-01 -1.19332409e-01 -1.60854212e-01
  1.14345648e+00  6.89990956e-02  3.16423980e-01  7.44308252e-01  1.00000000e+00
  1.00000000e+00  1.00000000e+00  1.00000000e+00  1.00000000e+00  1.83470016e-03
  1.40373012e-02  6.88426061e-02  2.32184421e-01  4.67941342e-01  3.62312032e-01
 -1.19332409e-01 -1.60854212e-01  1.14345648e+00  6.89990956e-02  3.16423980e-01
  7.44308252e-01  1.00000000e+00  1.00000000e+00  1.00000000e+00  1.00000000e+00
  1.00000000e+00  3.34945995e-02  2.34726947e-01  8.13757318e-01  1.00000000e+00
  3.34945995e-02  2.34726947e-01  8.13757318e-01  1.00000000e+00  3.34945995e-02
  2.34726947e-01  8.13757318e-01  1.00000000e+00  3.34945995e-02  2.34726947e-01
  8.13757318e-01  1.00000000e+00  3.34945995e-02  2.34726947e-01  8.13757318e-01
  1.00000000e+00  3.34945995e-02  2.34726947e-01  8.13757318e-01  1.00000000e+00
  3.34945995e-02  2.34726947e-01  8.13757318e-01  1.00000000e+00  3.34945995e-02
  2.34726947e-01  8.13757318e-01  1.00000000e+00  3.34945995e-02  2.34726947e-01
  8.13757318e-01  1.00000000e+00
Coordinates of each shell                  R   N=         282
  3.45772684e-01 -6.43863961e-01  3.46737624e-02  3.45772684e-01 -6.43863961e-01
  3.46737624e-02  3.45772684e-01 -6.43863961e-01  3.46737624e-02  3.45772684e-01
 -6.43863961e-01  3.46737624e-02  3.45772684e-01 -6.43863961e-01  3.46737624e-02
  3.45772684e-01 -6.43863961e-01  3.46737624e-02  3.45772684e-01 -6.43863961e-01
  3.46737624e-02  3.45772684e-01 -6.43863961e-01  3.46737624e-02 -1.48761125e+00
 -1.70872126e+00  1.95360916e+00 -1.48761125e+00 -1.70872126e+00  1.95360916e+00
 -1.48761125e+00 -1.70872126e+00  1.95360916e+00 -1.48761125e+00 -1.70872126e+00
  1.95360916e+00 -1.48761125e+00 -1.70872126e+00  1.95360916e+00 -1.48761125e+00
 -1.70872126e+00  1.95360916e+00 -1.48761125e+00 -1.70872126e+00  1.95360916e+00
 -1.48761125e+00 -1.70872126e+00  1.95360916e+00 -3.59250191e+00  1.88728492e-01
  2.69190149e+00 -3.59250191e+00  1.88728492e-01  2.69190149e+00 -3.59250191e+00
  1.88728492e-01  2.69190149e+00 -3.59250191e+00  1.88728492e-01  2.69190149e+00
 -3.59250191e+00  1.88728492e-01  2.69190149e+00 -3.59250191e+00  1.88728492e-01
  2.69190149e+00 -3.59250191e+00  1.88728492e-01  2.69190149e+00 -3.59250191e+00
  1.88728492e-01  2.69190149e+00 -4.67113898e-01 -2.26758088e+00  3.67375018e+00
 -4.67113898e-01 -2.26758088e+00  3.67375018e+00 -2.37933858e+00 -3.42758825e+00
  1.20323386e+00 -2.37933858e+00 -3.42758825e+00  1.20323386e+00 -5.43897315e+00
 -7.11736188e-01  4.54372090e+00 -5.43897315e+00 -7.11736188e-01  4.54372090e+00
 -5.43897315e+00 -7.11736188e-01  4.54372090e+00 -5.43897315e+00 -7.11736188e-01
  4.54372090e+00 -5.43897315e+00 -7.11736188e-01  4.54372090e+00 -5.43897315e+00
 -7.11736188e-01  4.54372090e+00 -5.43897315e+00 -7.11736188e-01  4.54372090e+00
 -5.43897315e+00 -7.11736188e-01  4.54372090e+00  2.50578151e+00  6.86983922e-01
  8.07225658e-01  2.50578151e+00  6.86983922e-01  8.07225658e-01  2.50578151e+00
  6.86983922e-01  8.07225658e-01  2.50578151e+00  6.86983922e-01  8.07225658e-01
  2.50578151e+00  6.86983922e-01  8.07225658e-01  2.50578151e+00  6.86983922e-01
  8.07225658e-01  2.50578151e+00  6.86983922e-01  8.07225658e-01  2.50578151e+00
  6.86983922e-01  8.07225658e-01  4.15736677e+00  1.74631192e+00 -9.60023107e-01
  4.15736677e+00  1.74631192e+00 -9.60023107e-01  4.15736677e+00  1.74631192e+00
 -9.60023107e-01  4.15736677e+00  1.74631192e+00 -9.60023107e-01  4.15736677e+00
  1.74631192e+00 -9.60023107e-01  4.15736677e+00  1.74631192e+00 -9.60023107e-01
  4.15736677e+00  1.74631192e+00 -9.60023107e-01  4.15736677e+00  1.74631192e+00
 -9.60023107e-01  3.67521449e+00  1.49113568e+00 -3.54453267e+00  3.67521449e+00
  1.49113568e+00 -3.54453267e+00  3.67521449e+00  1.49113568e+00 -3.54453267e+00
  3.67521449e+00  1.49113568e+00 -3.54453267e+00  3.67521449e+00  1.49113568e+00
 -3.54453267e+00  3.67521449e+00  1.49113568e+00 -3.54453267e+00  3.67521449e+00
  1.49113568e+00 -3.54453267e+00  3.67521449e+00  1.49113568e+00 -3.54453267e+00
  1.53267194e+00  1.68322051e-01 -4.34279619e+00  1.53267194e+00  1.68322051e-01
 -4.34279619e+00  1.53267194e+00  1.68322051e-01 -4.34279619e+00  1.53267194e+00
  1.68322051e-01 -4.34279619e+00  1.53267194e+00  1.68322051e-01 -4.34279619e+00
  1.53267194e+00  1.68322051e-01 -4.34279619e+00  1.53267194e+00  1.68322051e-01
 -4.34279619e+00  1.53267194e+00  1.68322051e-01 -4.34279619e+00 -1.11748741e-01
 -8.86736479e-01 -2.56641734e+00 -1.11748741e-01 -8.86736479e-01 -2.56641734e+00
 -1.11748741e-01 -8.86736479e-01 -2.56641734e+00 -1.11748741e-01 -8.86736479e-01
 -2.56641734e+00 -1.11748741e-01 -8.86736479e-01 -2.56641734e+00 -1.11748741e-01
 -8.86736479e-01 -2.56641734e+00 -1.11748741e-01 -8.86736479e-01 -2.56641734e+00
 -1.11748741e-01 -8.86736479e-01 -2.56641734e+00  2.90453372e+00  8.85423309e-01
  2.81564707e+00  2.90453372e+00  8.85423309e-01  2.81564707e+00 -1.76853712e+00
 -1.92422977e+00 -3.20736867e+00 -1.76853712e+00 -1.92422977e+00 -3.20736867e+00
  5.82413108e+00  2.76240325e+00 -3.18322471e-01  5.82413108e+00  2.76240325e+00
 -3.18322471e-01  4.96061601e+00  2.30807008e+00 -4.92296802e+00  4.96061601e+00
  2.30807008e+00 -4.92296802e+00  1.14511706e+00 -5.06561425e-02 -6.34883057e+00
  1.14511706e+00 -5.06561425e-02 -6.34883057e+00 -4.58316641e+00 -1.19868391e+00
  6.19787199e+00 -4.58316641e+00 -1.19868391e+00  6.19787199e+00 -6.35919307e+00
 -2.27644842e+00  3.90292301e+00 -6.35919307e+00 -2.27644842e+00  3.90292301e+00
 -4.62741544e+00  7.57374057e-01  9.88082913e-01 -4.62741544e+00  7.57374057e-01
  9.88082913e-01 -2.72345782e+00  1.91220369e+00  3.44807513e+00 -2.72345782e+00
  1.91220369e+00  3.44807513e+00
Total Energy                               R     -3.662379526891651e+02
Alpha Orbital Energies                     R   N=         193
 -1.43259045e+01 -1.02151507e+01 -1.02038933e+01 -1.01976024e+01 -1.01975162e+01
 -1.01958337e+01 -1.01955782e+01 -1.01955556e+01 -1.01938093e+01 -8.88834903e-01
 -8.59735401e-01 -7.81316730e-01 -7.49294649e-01 -7.09996810e-01 -6.29100651e-01
 -6.10382983e-01 -5.83935007e-01 -5.16148444e-01 -5.07379526e-01 -4.64453230e-01
 -4.62675759e-01 -4.44312108e-01 -4.25376341e-01 -4.17996057e-01 -4.07132470e-01
 -3.86662523e-01 -3.61758933e-01 -3.54694185e-01 -3.46232334e-01 -3.39627066e-01
 -2.59181296e-01 -2.56534006e-01 -2.35448584e-01 -1.55956665e-02 -1.45233044e-02
 -2.37238137e-03  8.12492508e-03  1.93456389e-02  3.01490538e-02  3.32666630e-02
  4.05853993e-02  4.88732717e-02  5.90896710e-02  6.84153443e-02  6.91536501e-02
  7.36596670e-02  9.02197922e-02  9.65305769e-02  1.00599717e-01  1.08047484e-01
  1.21186266e-01  1.21243020e-01  1.33446574e-01  1.44242607e-01  1.46289620e-01
  1.53413432e-01  1.57219432e-01  1.62540120e-01  1.68274246e-01  1.72023888e-01
  1.77595196e-01  1.89355166e-01  1.90731613e-01  1.92653887e-01  2.00908922e-01
  2.04619306e-01  2.07589613e-01  2.10902243e-01  2.21014689e-01  2.32712145e-01
  2.39980932e-01  2.52549030e-01  2.53760496e-01  2.55259934e-01  2.55601268e-01
  2.72930306e-01  2.77940572e-01  2.78118967e-01  2.91433102e-01  2.94288645e-01
  3.06462771e-01  3.06752576e-01  3.24134869e-01  3.48663285e-01  3.50264144e-01
  3.56320874e-01  3.66217963e-01  3.80103098e-01  3.81336550e-01  4.40781946e-01
  5.59993632e-01  5.98833150e-01  6.39361671e-01  6.58225403e-01  6.65820632e-01
  6.84707052e-01  6.97709751e-01  7.07025362e-01  7.18456750e-01  7.28784661e-01
  7.29974518e-01  7.40224235e-01  7.48474035e-01  7.56435453e-01  7.66305323e-01
  7.82923887e-01  7.95182188e-01  8.09175083e-01  8.63013266e-01  8.75870897e-01
  8.97958316e-01  9.23193296e-01  9.24352470e-01  9.31082869e-01  9.33618987e-01
  9.50662579e-01  9.66727593e-01  9.68938000e-01  1.01132049e+00  1.02065242e+00
  1.04288259e+00  1.05415435e+00  1.07945011e+00  1.08743708e+00  1.10662125e+00
  1.13029956e+00  1.14239060e+00  1.15480757e+00  1.16487177e+00  1.18449757e+00
  1.20516541e+00  1.25542872e+00  1.28221428e+00  1.28305173e+00  1.37210722e+00
  1.41578863e+00  1.43368554e+00  1.44055753e+00  1.45629910e+00  1.48143177e+00
  1.48905571e+00  1.50901791e+00  1.53569719e+00  1.58642394e+00  1.65190984e+00
  1.66512993e+00  1.80864539e+00  1.83500731e+00  1.84484582e+00  1.89468302e+00
  1.91971261e+00  1.94750018e+00  1.95452892e+00  1.98280896e+00  1.99631948e+00
  2.05737447e+00  2.07425477e+00  2.08011920e+00  2.10289603e+00  2.14161786e+00
  2.14562448e+00  2.17070706e+00  2.18144854e+00  2.21769333e+00  2.26213532e+00
  2.28043363e+00  2.30685836e+00  2.33202219e+00  2.40728130e+00  2.41342441e+00
  2.50595653e+00  2.52638396e+00  2.58542634e+00  2.60664026e+00  2.65270027e+00
  2.68931628e+00  2.74253912e+00  2.74857991e+00  2.75236969e+00  2.77693705e+00
  2.81302301e+00  2.95506554e+00  3.05240109e+00  3.39868805e+00  3.95589700e+00
  4.24031744e+00  4.24232294e+00  4.26080323e+00  4.30505489e+00  4.38363297e+00
  4.43760468e+00  4.53810859e+00  4.71337311e+00
Alpha MO coefficients                      R   N=       37249
 -1.20520589e-06  3.79289776e-06 -8.87769949e-06 -8.05030640e-06  1.06604741e-05
  6.20181421e-05  4.36708864e-04  2.73119691e-04 -4.65943137e-04 -1.04368124e-05
 -1.59943948e-06 -1.10101707e-05 -8.85185373e-06  1.93266646e-05  1.12327335e-05
  1.13174954e-03  2.76575766e-04 -5.48984077e-04  1.05552569e-04 -6.57202181e-06
 -8.84377002e-05 -4.12933532e-05  3.58486179e-06  3.02541151e-05  6.65644947e-04
  2.31091470e-04  1.97539869e-04 -2.71351164e-04  4.01756321e-05  4.26631501e-06
  2.99651948e-05  8.17421986e-06 -4.07830022e-05 -9.26079652e-06 -4.14384243e-03
 -9.01105780e-04 -7.39682517e-04  1.04175676e-03  1.75248920e-05 -3.62216763e-05
  1.73958162e-04  8.75645879e-05 -1.75731097e-04 -3.51110264e-04 -2.41391928e-05
  2.15982928e-04 -8.28556530e-05 -2.32956176e-05  1.91253797e-05 -2.65291759e-05
 -4.67368339e-05  1.05137338e-04  6.36468387e-05 -9.19073003e-04  1.31503439e-03
  1.47497491e-04 -1.08556145e-03 -2.06697784e-05  1.40494648e-04 -2.08195958e-05
  1.41828603e-04 -9.92662487e-01 -3.46169753e-02 -7.83337597e-04  9.12763215e-04
  1.77579817e-04 -4.29421589e-03  6.79541177e-04 -6.14565456e-04 -2.37300415e-04
  8.37222886e-03  8.29726666e-03  8.35308883e-03  1.81601304e-05 -7.80138436e-05
 -1.55660736e-05  3.32686337e-03 -4.73597672e-05  6.97866366e-04 -2.91570366e-04
  9.21336507e-07  9.95729252e-06  2.05288215e-06  1.12177594e-06 -3.43427559e-06
 -2.71376048e-04  4.99906841e-05  2.57332427e-05  3.04477931e-04 -9.85675583e-07
  1.17331979e-06 -8.00148180e-06 -4.60730690e-06 -6.31873847e-06 -4.95531184e-06
 -3.40435166e-03 -1.48110033e-03 -6.35473922e-04  1.09329251e-03 -1.63574510e-06
 -8.50487873e-06 -3.58745084e-06 -5.39023012e-06  2.30087250e-06  2.46493105e-04
 -1.00836693e-04 -4.95187725e-05 -1.15635881e-05  2.18073068e-07 -8.92426569e-07
 -2.03689998e-06 -4.52215021e-07 -9.90924501e-07 -1.04345079e-06  4.25079486e-03
 -5.56527876e-04 -5.47300705e-04  8.81035189e-04  5.25938330e-07  4.12419331e-06
 -2.76804773e-07 -1.69921444e-06  1.02044325e-06 -1.18265649e-04  5.49078622e-05
  3.48038992e-05 -5.89301050e-05 -3.72011455e-07  6.08312971e-07 -1.58834198e-06
 -1.72685546e-06 -9.28085617e-07 -2.31284653e-07  4.78734626e-05  9.51171097e-05
  2.38333348e-04 -2.04945510e-04 -1.64238202e-06 -8.54497580e-06 -1.05073417e-06
 -3.85926095e-06  5.60002166e-06  2.47066719e-04 -4.76996883e-06  8.21215802e-06
  1.12831947e-04 -1.60855518e-06 -4.35724684e-07 -6.65920790e-07 -6.27353816e-07
 -1.75690953e-06 -1.08601228e-07  4.27558570e-03 -7.52304795e-04 -6.65499650e-04
  6.75477935e-04  9.07885038e-07  9.91111759e-06  3.21973593e-06  1.82685846e-06
 -2.01088994e-06 -2.71061463e-04 -2.53536822e-04 -1.56793726e-04 -8.54115061e-05
 -4.45620519e-06  1.92011401e-06 -5.35636638e-06 -5.06387956e-06 -7.66194104e-06
 -3.26188797e-06 -3.33612998e-03 -1.19560875e-03 -4.66038410e-04  1.54080304e-03
 -8.90774556e-06 -1.25755812e-04 -8.96546338e-06 -1.25987384e-04  1.89746283e-06
  1.17263176e-05 -1.58990215e-06 -3.20306955e-05  1.89509489e-06  1.17830773e-05
 -2.61619916e-04  9.90460063e-05 -2.61589386e-04  9.88722717e-05  2.53975897e-05
 -8.64614745e-05  2.54593041e-05 -8.67535468e-05 -1.97182046e-04 -1.70256149e-04
  1.19485895e-04 -8.70914798e-06 -8.83719042e-05  1.19955482e-03  2.48271604e-04
  1.15866382e-04 -2.47088801e-04 -6.74317804e-05 -3.08222413e-05 -6.05953460e-05
 -3.30883140e-06  5.47043055e-06 -1.53675314e-05  2.82024300e-02  4.09585600e-03
  3.99253260e-03 -5.32060551e-03  4.31283352e-03 -1.28139998e-04  1.06822195e-05
 -1.25777894e-04  5.11914849e-05  5.22419395e-03 -2.20559212e-03  1.92196411e-03
  8.01411342e-04 -2.77650303e-04 -3.00202721e-04 -1.93634875e-04  1.13425522e-04
  3.47150499e-05 -2.23249627e-05  2.17129960e-02  1.51213766e-03  4.02524904e-03
 -3.05213930e-03  9.93134379e-01  5.01531550e-02 -1.88060594e-04 -1.97570422e-04
  2.38204681e-04 -2.17472272e-02 -8.21253650e-04  1.39756158e-03 -1.90249550e-05
 -8.78871503e-03 -8.78929527e-03 -8.68880574e-03  1.17749364e-04  7.33420318e-05
 -1.29194243e-05 -1.24117831e-02 -1.65113267e-03  1.26474506e-03  6.80674052e-04
 -1.09038862e-04 -8.32840673e-04 -1.08305093e-04 -8.41505618e-04 -1.10142449e-04
 -1.35720167e-04 -1.10969448e-04 -5.22064034e-05  1.10368336e-04  3.17277418e-03
  1.13691096e-03  1.65563744e-04 -9.57680489e-04 -2.20177122e-04 -1.42581835e-04
 -2.18921674e-04 -9.52130837e-05  2.62779533e-04  1.63928158e-04  5.37049801e-03
  1.22159643e-03 -3.76758900e-05 -9.25592977e-04  7.48333625e-05  1.14674465e-04
 -6.87648538e-05 -2.45362608e-05  1.31521329e-05 -5.88948529e-04  9.79566438e-04
  4.71349675e-04 -1.12972802e-04  1.73660950e-05  6.64709704e-05  4.67355127e-05
 -2.13936546e-06 -1.95450436e-05 -2.10745350e-05 -2.31141277e-02  5.42783486e-03
  2.51463320e-03  3.04053111e-03  3.20043177e-05  5.11512980e-05  1.22325499e-05
  6.80835513e-06  9.92436307e-07 -5.93177924e-04  7.49397217e-05  8.49562554e-05
 -3.94074303e-04  9.57120788e-06  1.09898562e-05 -6.01538996e-06 -1.13429204e-05
  1.28999830e-05  1.00437381e-05  1.51388007e-02 -2.83024136e-03 -1.16352288e-03
 -3.38964077e-03  1.44126843e-05  1.49965757e-05  2.33538755e-06  7.49252370e-06
 -5.44369730e-06 -3.72086595e-04 -2.64337177e-05 -5.22531005e-05  4.47938585e-05
  3.63734326e-06  7.84206656e-06  4.14581524e-06 -3.64340963e-07 -3.54540765e-07
 -2.37406728e-06 -2.33252427e-02  2.59922447e-03  1.15819155e-03 -2.44696033e-03
  3.22554848e-05  5.15412951e-05  6.16566533e-07  7.38338175e-09 -1.39776213e-05
 -5.98264236e-04  3.28685231e-04  2.36474629e-04 -7.11063098e-05  5.92386902e-07
  1.02274403e-05  4.00658602e-06 -1.54234807e-05  1.07277763e-05  1.14378081e-05
  1.50416200e-02  2.55671423e-03  2.07714999e-03  3.30811254e-03  7.43350044e-05
  1.14673809e-04 -2.46348091e-05  1.27645497e-06  6.97106538e-05 -5.87060362e-04
  2.43384743e-04  3.07907509e-05 -1.06799295e-03  4.41153187e-05  6.17831712e-05
  2.39306795e-05  2.91152193e-06 -9.43413912e-06 -3.26820057e-05 -2.33865458e-02
 -1.68718113e-03 -1.75154294e-03 -6.50718695e-03  6.28017448e-05 -9.54663305e-05
  6.32874941e-05 -9.51253506e-05  4.72623435e-05 -8.87424699e-05  4.51620212e-06
  1.69496501e-04  4.72660027e-05 -8.95223946e-05 -8.14473026e-05 -4.60410473e-04
 -8.15686068e-05 -4.59799318e-04  4.52761996e-05  3.23751008e-03  4.54867015e-05
  3.23633116e-03  9.91941070e-01  5.03261980e-02 -3.43892727e-05  7.78525589e-05
 -9.92261241e-06 -2.27708026e-02 -1.02671046e-03 -9.38910977e-04  1.23641790e-03
 -8.81602267e-03 -8.95194608e-03 -8.72473377e-03  1.42067291e-04  9.28351286e-05
  5.87074698e-05  9.88505640e-02  4.26895303e-03  3.99694447e-03 -5.17079230e-03
  1.21237835e-02  6.47895258e-04 -7.81622389e-05 -3.55750473e-05  7.72601831e-05
  2.06364209e-03  1.00225548e-03  1.55350948e-05 -7.83795594e-04 -2.97645013e-04
 -1.90129907e-04 -3.12281206e-04 -1.05687700e-04  1.89572962e-04  1.08728698e-04
 -2.64641268e-03 -5.41957595e-03  1.84215796e-03  3.33443022e-03  6.25156730e-05
 -1.66261139e-04 -8.83534201e-05 -1.50449027e-05  7.52816896e-05  3.39356414e-04
  4.08017212e-04  3.35640066e-04 -4.72082615e-04 -5.21117102e-05 -8.14927084e-05
 -7.72540595e-05 -2.03851985e-05 -1.90145355e-05  1.44684679e-05 -1.21449333e-02
 -3.18728847e-03  1.32525712e-03  1.83919314e-03 -2.87677229e-05 -9.20904397e-04
 -2.93319347e-05 -9.19821664e-04 -2.77421631e-05 -9.75600545e-05  1.02390494e-06
 -2.61154849e-06  4.28583956e-07  7.02217118e-04  1.22345458e-04  1.49175512e-05
 -1.01745804e-04 -4.70700813e-05 -7.48049688e-05 -4.47039654e-05  1.69514449e-05
 -1.90508242e-05 -4.75502405e-06 -2.93654742e-04  3.70281524e-04  1.82079412e-04
 -3.70035798e-04  3.17230159e-02  1.26697828e-03  1.89372162e-04  1.44858403e-04
  1.24880504e-04  5.95864069e-03 -1.80120798e-03 -1.12154842e-03 -2.43898549e-03
 -5.87788829e-04 -4.62234301e-04 -3.69067864e-04 -1.64385247e-04 -9.43387693e-05
 -6.53338828e-05 -5.11497530e-02  7.90487253e-03  4.41116482e-03  7.54860578e-03
  1.39455392e-03  1.53241699e-04  8.95975880e-06  1.20342541e-05 -3.81218290e-05
 -3.11653974e-03  1.68771185e-03  1.01414226e-03  1.10739316e-03  4.52814780e-05
  2.42527951e-05 -3.78099303e-06  2.38070850e-05 -3.03647951e-06 -2.04631539e-07
  2.39079403e-02 -3.82098948e-03 -2.26155562e-03 -3.34735910e-03 -4.38618255e-04
 -3.09922656e-04  1.88608211e-05  1.42655156e-05 -2.12873370e-05  3.95099633e-03
 -1.34971257e-03 -8.68693741e-04  1.45274052e-03 -3.79354397e-05 -8.50183512e-05
 -4.20798312e-06  5.76712573e-05  1.19164469e-05  3.94572684e-06 -2.65493463e-02
  2.67332524e-03  1.62675939e-03 -2.82944496e-03  1.39521166e-03  1.53386449e-04