Generated by Psi4
     FORCE                           RHF                       TESTBAS
Number of atoms                            I               17
Charge                                     I                0
Multiplicity                               I                1
Number of electrons                        I               72
Number of alpha electrons                  I               36
Number of beta electrons                   I               36
Number of basis functions                  I              204
Number of independent functions            I              204
Atomic numbers                             I   N=          17
           6           6           6           6           6           6
           1           1           1           1           6           8
           8           1           7           1           1
Nuclear charges                            R   N=          17
  6.00000000e+00  6.00000000e+00  6.00000000e+00  6.00000000e+00  6.00000000e+00
  6.00000000e+00  1.00000000e+00  1.00000000e+00  1.00000000e+00  1.00000000e+00
  6.00000000e+00  8.00000000e+00  8.00000000e+00  1.00000000e+00  7.00000000e+00
  1.00000000e+00  1.00000000e+00
Current cartesian coordinates              R   N=          51
  3.32425802e-01  4.37430798e-01 -2.26631668e-01  2.52821176e+00  1.05560337e+00
  1.12646042e+00 -1.02421815e+00 -1.75574706e+00  4.53840324e-01 -2.11297058e-01
 -3.21376472e+00  2.50599104e+00  1.94076845e+00 -2.53526995e+00  3.86909638e+00
  3.33359005e+00 -4.04734649e-01  3.16231562e+00 -1.26350781e+00 -4.90498145e+00
  3.01683247e+00  3.55800071e+00  2.73421059e+00  5.54570937e-01  2.53882001e+00
 -3.68634202e+00  5.46144387e+00  5.02462890e+00  1.21337074e-01  4.20024814e+00
 -4.65673153e-01  2.27412345e+00 -2.26366311e+00  9.53792680e-01  3.88324048e+00
 -3.07237265e+00 -2.86303779e+00  2.11396992e+00 -3.10759753e+00 -3.73155247e+00
  6.78133177e-01 -2.27427414e+00 -3.25522125e+00 -2.43844955e+00 -9.37382327e-01
 -2.83376384e+00 -3.26389658e+00 -2.62802383e+00 -4.36858205e+00 -3.65551361e+00
  4.90513278e-02
Integer atomic weights                     I   N=          17
          12          12          12          12          12          12
           1           1           1           1          12          15
          15           1          14           1           1
Real atomic weights                        R   N=          17
  1.20000000e+01  1.20000000e+01  1.20000000e+01  1.20000000e+01  1.20000000e+01
  1.20000000e+01  1.00782503e+00  1.00782503e+00  1.00782503e+00  1.00782503e+00
  1.20000000e+01  1.59949146e+01  1.59949146e+01  1.00782503e+00  1.40030740e+01
  1.00782503e+00  1.00782503e+00
Number of primitive shells                 I              198
Number of contracted shells                I               94
Pure/Cartesian d shells                    I                1
Pure/Cartesian f shells                    I                1
Highest angular momentum                   I                2
Largest degree of contraction              I                6
Shell types                                I   N=          94
           0           0           1           0           1           2
           0           1           0           0           1           0
           1           2           0           1           0           0
           1           0           1           2           0           1
           0           0           1           0           1           2
           0           1           0           0           1           0
           1           2           0           1           0           0
           1           0           1           2           0           1
           0           0           0           0           0           0
           0           0           0           0           1           0
           1           2           0           1           0           0
           1           0           1           2           0           1
           0           0           1           0           1           2
           0           1           0           0           0           0
           1           0           1           2           0           1
           0           0           0           0
Number of primitives per shell             I   N=          94
           6           3           3           1           1           1
           1           1           6           3           3           1
           1           1           1           1           6           3
           3           1           1           1           1           1
           6           3           3           1           1           1
           1           1           6           3           3           1
           1           1           1           1           6           3
           3           1           1           1           1           1
           3           1           3           1           3           1
           3           1           6           3           3           1
           1           1           1           1           6           3
           3           1           1           1           1           1
           6           3           3           1           1           1
           1           1           3           1           6           3
           3           1           1           1           1           1
           3           1           3           1
Shell to atom map                          I   N=          94
           1           1           1           1           1           1
           1           1           2           2           2           2
           2           2           2           2           3           3
           3           3           3           3           3           3
           4           4           4           4           4           4
           4           4           5           5           5           5
           5           5           5           5           6           6
           6           6           6           6           6           6
           7           7           8           8           9           9
          10          10          11          11          11          11
          11          11          11          11          12          12
          12          12          12          12          12          12
          13          13          13          13          13          13
          13          13          14          14          15          15
          15          15          15          15          15          15
          16          16          17          17
Primitive exponents                        R   N=         198
  3.04752490e+03  4.57369510e+02  1.03948690e+02  2.92101550e+01  9.28666300e+00
  3.16392700e+00  7.86827240e+00  1.88128850e+00  5.44249300e-01  7.86827240e+00
  1.88128850e+00  5.44249300e-01  1.68714400e-01  1.68714400e-01  8.00000000e-01
  4.38000000e-02  4.38000000e-02  3.04752490e+03  4.57369510e+02  1.03948690e+02
  2.92101550e+01  9.28666300e+00  3.16392700e+00  7.86827240e+00  1.88128850e+00
  5.44249300e-01  7.86827240e+00  1.88128850e+00  5.44249300e-01  1.68714400e-01
  1.68714400e-01  8.00000000e-01  4.38000000e-02  4.38000000e-02  3.04752490e+03
  4.57369510e+02  1.03948690e+02  2.92101550e+01  9.28666300e+00  3.16392700e+00
  7.86827240e+00  1.88128850e+00  5.44249300e-01  7.86827240e+00  1.88128850e+00
  5.44249300e-01  1.68714400e-01  1.68714400e-01  8.00000000e-01  4.38000000e-02
  4.38000000e-02  3.04752490e+03  4.57369510e+02  1.03948690e+02  2.92101550e+01
  9.28666300e+00  3.16392700e+00  7.86827240e+00  1.88128850e+00  5.44249300e-01
  7.86827240e+00  1.88128850e+00  5.44249300e-01  1.68714400e-01  1.68714400e-01
  8.00000000e-01  4.38000000e-02  4.38000000e-02  3.04752490e+03  4.57369510e+02
  1.03948690e+02  2.92101550e+01  9.28666300e+00  3.16392700e+00  7.86827240e+00
  1.88128850e+00  5.44249300e-01  7.86827240e+00  1.88128850e+00  5.44249300e-01
  1.68714400e-01  1.68714400e-01  8.00000000e-01  4.38000000e-02  4.38000000e-02
  3.04752490e+03  4.57369510e+02  1.03948690e+02  2.92101550e+01  9.28666300e+00
  3.16392700e+00  7.86827240e+00  1.88128850e+00  5.44249300e-01  7.86827240e+00
  1.88128850e+00  5.44249300e-01  1.68714400e-01  1.68714400e-01  8.00000000e-01
  4.38000000e-02  4.38000000e-02  1.87311370e+01  2.82539370e+00  6.40121700e-01
  1.61277800e-01  1.87311370e+01  2.82539370e+00  6.40121700e-01  1.61277800e-01
  1.87311370e+01  2.82539370e+00  6.40121700e-01  1.61277800e-01  1.87311370e+01
  2.82539370e+00  6.40121700e-01  1.61277800e-01  3.04752490e+03  4.57369510e+02
  1.03948690e+02  2.92101550e+01  9.28666300e+00  3.16392700e+00  7.86827240e+00
  1.88128850e+00  5.44249300e-01  7.86827240e+00  1.88128850e+00  5.44249300e-01
  1.68714400e-01  1.68714400e-01  8.00000000e-01  4.38000000e-02  4.38000000e-02
  5.48467170e+03  8.25234950e+02  1.88046960e+02  5.29645000e+01  1.68975700e+01
  5.79963530e+00  1.55396160e+01  3.59993360e+00  1.01376180e+00  1.55396160e+01
  3.59993360e+00  1.01376180e+00  2.70005800e-01  2.70005800e-01  8.00000000e-01
  8.45000000e-02  8.45000000e-02  5.48467170e+03  8.25234950e+02  1.88046960e+02
  5.29645000e+01  1.68975700e+01  5.79963530e+00  1.55396160e+01  3.59993360e+00
  1.01376180e+00  1.55396160e+01  3.59993360e+00  1.01376180e+00  2.70005800e-01
  2.70005800e-01  8.00000000e-01  8.45000000e-02  8.45000000e-02  1.87311370e+01
  2.82539370e+00  6.40121700e-01  1.61277800e-01  4.17351100e+03  6.27457900e+02
  1.42902100e+02  4.02343300e+01  1.28202100e+01  4.39043700e+00  1.16263580e+01
  2.71628000e+00  7.72218000e-01  1.16263580e+01  2.71628000e+00  7.72218000e-01
  2.12031300e-01  2.12031300e-01  8.00000000e-01  6.39000000e-02  6.39000000e-02
  1.87311370e+01  2.82539370e+00  6.40121700e-01  1.61277800e-01  1.87311370e+01
  2.82539370e+00  6.40121700e-01  1.61277800e-01
Contraction coefficients                   R   N=         198
  1.83470016e-03  1.40373012e-02  6.88426061e-02  2.32184421e-01  4.67941342e-01
  3.62312032e-01 -1.19332409e-01 -1.60854212e-01  1.14345648e+00  6.89990956e-02
  3.16423980e-01  7.44308252e-01  1.00000000e+00  1.00000000e+00  1.00000000e+00
  1.00000000e+00  1.00000000e+00  1.83470016e-03  1.40373012e-02  6.88426061e-02
  2.32184421e-01  4.67941342e-01  3.62312032e-01 -1.19332409e-01 -1.60854212e-01
  1.14345648e+00  6.89990956e-02  3.16423980e-01  7.44308252e-01  1.00000000e+00
  1.00000000e+00  1.00000000e+00  1.00000000e+00  1.00000000e+00  1.83470016e-03
  1.40373012e-02  6.88426061e-02  2.32184421e-01  4.67941342e-01  3.62312032e-01
 -1.19332409e-01 -1.60854212e-01  1.14345648e+00  6.89990956e-02  3.16423980e-01
  7.44308252e-01  1.00000000e+00  1.00000000e+00  1.00000000e+00  1.00000000e+00
  1.00000000e+00  1.83470016e-03  1.40373012e-02  6.88426061e-02  2.32184421e-01
  4.67941342e-01  3.62312032e-01 -1.19332409e-01 -1.60854212e-01  1.14345648e+00
  6.89990956e-02  3.16423980e-01  7.44308252e-01  1.00000000e+00  1.00000000e+00
  1.00000000e+00  1.00000000e+00  1.00000000e+00  1.83470016e-03  1.40373012e-02
  6.88426061e-02  2.32184421e-01  4.67941342e-01  3.62312032e-01 -1.19332409e-01
 -1.60854212e-01  1.14345648e+00  6.89990956e-02  3.16423980e-01  7.44308252e-01
  1.00000000e+00  1.00000000e+00  1.00000000e+00  1.00000000e+00  1.00000000e+00
  1.83470016e-03  1.40373012e-02  6.88426061e-02  2.32184421e-01  4.67941342e-01
  3.62312032e-01 -1.19332409e-01 -1.60854212e-01  1.14345648e+00  6.89990956e-02
  3.16423980e-01  7.44308252e-01  1.00000000e+00  1.00000000e+00  1.00000000e+00
  1.00000000e+00  1.00000000e+00  3.34945995e-02  2.34726947e-01  8.13757318e-01
  1.00000000e+00  3.34945995e-02  2.34726947e-01  8.13757318e-01  1.00000000e+00
  3.34945995e-02  2.34726947e-01  8.13757318e-01  1.00000000e+00  3.34945995e-02
  2.34726947e-01  8.13757318e-01  1.00000000e+00  1.83470016e-03  1.40373012e-02
  6.88426061e-02  2.32184421e-01  4.67941342e-01  3.62312032e-01 -1.19332409e-01
 -1.60854212e-01  1.14345648e+00  6.89990956e-02  3.16423980e-01  7.44308252e-01
  1.00000000e+00  1.00000000e+00  1.00000000e+00  1.00000000e+00  1.00000000e+00
  1.83109981e-03  1.39500985e-02  6.84450927e-02  2.32714275e-01  4.70192950e-01
  3.58520862e-01 -1.10777504e-01 -1.48026305e-01  1.13076704e+00  7.08742995e-02
  3.39752798e-01  7.27158595e-01  1.00000000e+00  1.00000000e+00  1.00000000e+00
  1.00000000e+00  1.00000000e+00  1.83109981e-03  1.39500985e-02  6.84450927e-02
  2.32714275e-01  4.70192950e-01  3.58520862e-01 -1.10777504e-01 -1.48026305e-01
  1.13076704e+00  7.08742995e-02  3.39752798e-01  7.27158595e-01  1.00000000e+00
  1.00000000e+00  1.00000000e+00  1.00000000e+00  1.00000000e+00  3.34945995e-02
  2.34726947e-01  8.13757318e-01  1.00000000e+00  1.83479944e-03  1.39949958e-02
  6.85869792e-02  2.32240930e-01  4.69069858e-01  3.60454891e-01 -1.14961023e-01
 -1.69118034e-01  1.14585223e+00  6.75800232e-02  3.23907111e-01  7.40895255e-01
  1.00000000e+00  1.00000000e+00  1.00000000e+00  1.00000000e+00  1.00000000e+00
  3.34945995e-02  2.34726947e-01  8.13757318e-01  1.00000000e+00  3.34945995e-02
  2.34726947e-01  8.13757318e-01  1.00000000e+00
Coordinates of each shell                  R   N=         282
  3.32425802e-01  4.37430798e-01 -2.26631668e-01  3.32425802e-01  4.37430798e-01
 -2.26631668e-01  3.32425802e-01  4.37430798e-01 -2.26631668e-01  3.32425802e-01
  4.37430798e-01 -2.26631668e-01  3.32425802e-01  4.37430798e-01 -2.26631668e-01
  3.32425802e-01  4.37430798e-01 -2.26631668e-01  3.32425802e-01  4.37430798e-01
 -2.26631668e-01  3.32425802e-01  4.37430798e-01 -2.26631668e-01  2.52821176e+00
  1.05560337e+00  1.12646042e+00  2.52821176e+00  1.05560337e+00  1.12646042e+00
  2.52821176e+00  1.05560337e+00  1.12646042e+00  2.52821176e+00  1.05560337e+00
  1.12646042e+00  2.52821176e+00  1.05560337e+00  1.12646042e+00  2.52821176e+00
  1.05560337e+00  1.12646042e+00  2.52821176e+00  1.05560337e+00  1.12646042e+00
  2.52821176e+00  1.05560337e+00  1.12646042e+00 -1.02421815e+00 -1.75574706e+00
  4.53840324e-01 -1.02421815e+00 -1.75574706e+00  4.53840324e-01 -1.02421815e+00
 -1.75574706e+00  4.53840324e-01 -1.02421815e+00 -1.75574706e+00  4.53840324e-01
 -1.02421815e+00 -1.75574706e+00  4.53840324e-01 -1.02421815e+00 -1.75574706e+00
  4.53840324e-01 -1.02421815e+00 -1.75574706e+00  4.53840324e-01 -1.02421815e+00
 -1.75574706e+00  4.53840324e-01 -2.11297058e-01 -3.21376472e+00  2.50599104e+00
 -2.11297058e-01 -3.21376472e+00  2.50599104e+00 -2.11297058e-01 -3.21376472e+00
  2.50599104e+00 -2.11297058e-01 -3.21376472e+00  2.50599104e+00 -2.11297058e-01
 -3.21376472e+00  2.50599104e+00 -2.11297058e-01 -3.21376472e+00  2.50599104e+00
 -2.11297058e-01 -3.21376472e+00  2.50599104e+00 -2.11297058e-01 -3.21376472e+00
  2.50599104e+00  1.94076845e+00 -2.53526995e+00  3.86909638e+00  1.94076845e+00
 -2.53526995e+00  3.86909638e+00  1.94076845e+00 -2.53526995e+00  3.86909638e+00
  1.94076845e+00 -2.53526995e+00  3.86909638e+00  1.94076845e+00 -2.53526995e+00
  3.86909638e+00  1.94076845e+00 -2.53526995e+00  3.86909638e+00  1.94076845e+00
 -2.53526995e+00  3.86909638e+00  1.94076845e+00 -2.53526995e+00  3.86909638e+00
  3.33359005e+00 -4.04734649e-01  3.16231562e+00  3.33359005e+00 -4.04734649e-01
  3.16231562e+00  3.33359005e+00 -4.04734649e-01  3.16231562e+00  3.33359005e+00
 -4.04734649e-01  3.16231562e+00  3.33359005e+00 -4.04734649e-01  3.16231562e+00
  3.33359005e+00 -4.04734649e-01  3.16231562e+00  3.33359005e+00 -4.04734649e-01
  3.16231562e+00  3.33359005e+00 -4.04734649e-01  3.16231562e+00 -1.26350781e+00
 -4.90498145e+00  3.01683247e+00 -1.26350781e+00 -4.90498145e+00  3.01683247e+00
  3.55800071e+00  2.73421059e+00  5.54570937e-01  3.55800071e+00  2.73421059e+00
  5.54570937e-01  2.53882001e+00 -3.68634202e+00  5.46144387e+00  2.53882001e+00
 -3.68634202e+00  5.46144387e+00  5.02462890e+00  1.21337074e-01  4.20024814e+00
  5.02462890e+00  1.21337074e-01  4.20024814e+00 -4.65673153e-01  2.27412345e+00
 -2.26366311e+00 -4.65673153e-01  2.27412345e+00 -2.26366311e+00 -4.65673153e-01
  2.27412345e+00 -2.26366311e+00 -4.65673153e-01  2.27412345e+00 -2.26366311e+00
 -4.65673153e-01  2.27412345e+00 -2.26366311e+00 -4.65673153e-01  2.27412345e+00
 -2.26366311e+00 -4.65673153e-01  2.27412345e+00 -2.26366311e+00 -4.65673153e-01
  2.27412345e+00 -2.26366311e+00  9.53792680e-01  3.88324048e+00 -3.07237265e+00
  9.53792680e-01  3.88324048e+00 -3.07237265e+00  9.53792680e-01  3.88324048e+00
 -3.07237265e+00  9.53792680e-01  3.88324048e+00 -3.07237265e+00  9.53792680e-01
  3.88324048e+00 -3.07237265e+00  9.53792680e-01  3.88324048e+00 -3.07237265e+00
  9.53792680e-01  3.88324048e+00 -3.07237265e+00  9.53792680e-01  3.88324048e+00
 -3.07237265e+00 -2.86303779e+00  2.11396992e+00 -3.10759753e+00 -2.86303779e+00
  2.11396992e+00 -3.10759753e+00 -2.86303779e+00  2.11396992e+00 -3.10759753e+00
 -2.86303779e+00  2.11396992e+00 -3.10759753e+00 -2.86303779e+00  2.11396992e+00
 -3.10759753e+00 -2.86303779e+00  2.11396992e+00 -3.10759753e+00 -2.86303779e+00
  2.11396992e+00 -3.10759753e+00 -2.86303779e+00  2.11396992e+00 -3.10759753e+00
 -3.73155247e+00  6.78133177e-01 -2.27427414e+00 -3.73155247e+00  6.78133177e-01
 -2.27427414e+00 -3.25522125e+00 -2.43844955e+00 -9.37382327e-01 -3.25522125e+00
 -2.43844955e+00 -9.37382327e-01 -3.25522125e+00 -2.43844955e+00 -9.37382327e-01
 -3.25522125e+00 -2.43844955e+00 -9.37382327e-01 -3.25522125e+00 -2.43844955e+00
 -9.37382327e-01 -3.25522125e+00 -2.43844955e+00 -9.37382327e-01 -3.25522125e+00
 -2.43844955e+00 -9.37382327e-01 -3.25522125e+00 -2.43844955e+00 -9.37382327e-01
 -2.83376384e+00 -3.26389658e+00 -2.62802383e+00 -2.83376384e+00 -3.26389658e+00
 -2.62802383e+00 -4.36858205e+00 -3.65551361e+00  4.90513278e-02 -4.36858205e+00
 -3.65551361e+00  4.90513278e-02
Total Energy                               R     -4.761929396247876e+02
Alpha Orbital Energies                     R   N=         204
 -1.91865706e+01 -1.91356431e+01 -1.43856358e+01 -1.03230914e+01 -1.02647646e+01
 -1.02253945e+01 -1.02228111e+01 -1.02209105e+01 -1.02154844e+01 -1.02135503e+01
 -1.09583150e+00 -1.01450136e+00 -9.52568219e-01 -8.69557483e-01 -7.82803422e-01
 -7.59578231e-01 -6.54966632e-01 -6.34000086e-01 -6.09919244e-01 -5.65570149e-01
 -5.40499173e-01 -5.22952755e-01 -4.85487312e-01 -4.79187205e-01 -4.52749189e-01
 -4.44633336e-01 -4.37713545e-01 -4.07419227e-01 -3.97454937e-01 -3.76690171e-01
 -3.75955567e-01 -3.24194725e-01 -3.13816499e-01 -2.81254724e-01 -2.73172623e-01
 -2.61915455e-01 -6.10021790e-02 -3.25304593e-02 -2.16495279e-02  2.53323619e-03
  1.67882883e-02  3.43805521e-02  3.62336731e-02  4.12784928e-02  4.44434528e-02
  5.53899697e-02  7.11648368e-02  7.33892199e-02  7.61143607e-02  7.78736053e-02
  1.03754516e-01  1.08631073e-01  1.15662650e-01  1.20463265e-01  1.23879211e-01
  1.28720426e-01  1.32962379e-01  1.46711631e-01  1.54279346e-01  1.60897074e-01
  1.65462291e-01  1.74766106e-01  1.77078435e-01  1.84562013e-01  1.88696282e-01
  1.99225356e-01  2.00994482e-01  2.04909088e-01  2.16283406e-01  2.21707087e-01
  2.24305274e-01  2.29007091e-01  2.33398590e-01  2.47351957e-01  2.47981566e-01
  2.55579946e-01  2.63884755e-01  2.69131579e-01  2.77612631e-01  2.93552105e-01
  2.95881297e-01  3.03245577e-01  3.11443548e-01  3.14215129e-01  3.23530847e-01
  3.36607745e-01  3.44249373e-01  3.53262597e-01  3.60071917e-01  3.72066432e-01
  3.85151371e-01  4.11950018e-01  4.25356067e-01  4.56298377e-01  4.93026017e-01
  5.69795453e-01  6.03977424e-01  6.48226375e-01  6.51081733e-01  6.69645549e-01
  6.95152439e-01  7.09672260e-01  7.16748602e-01  7.21385526e-01  7.29535999e-01
  7.44557697e-01  7.57566627e-01  7.85173341e-01  8.07476569e-01  8.16756043e-01
  8.46902448e-01  8.73210436e-01  8.97254462e-01  9.12006892e-01  9.26887196e-01
  9.28720242e-01  9.42854736e-01  9.74642401e-01  1.00427235e+00  1.01001492e+00
  1.03922858e+00  1.06435055e+00  1.07384668e+00  1.10289771e+00  1.10883305e+00
  1.11793221e+00  1.15058432e+00  1.16059686e+00  1.16899689e+00  1.18620389e+00
  1.21435835e+00  1.22109967e+00  1.24872994e+00  1.27282500e+00  1.28213833e+00
  1.31179577e+00  1.34398132e+00  1.36017543e+00  1.37921257e+00  1.39846682e+00
  1.41319930e+00  1.43340296e+00  1.43666558e+00  1.45476725e+00  1.46227618e+00
  1.47809180e+00  1.49107687e+00  1.58089209e+00  1.63675583e+00  1.69852004e+00
  1.69942870e+00  1.76670725e+00  1.77972917e+00  1.80614467e+00  1.85303014e+00
  1.85615408e+00  1.87163785e+00  1.88034058e+00  1.92925385e+00  1.94443726e+00
  1.94947298e+00  1.96639182e+00  2.01759288e+00  2.04137147e+00  2.07194166e+00
  2.08685892e+00  2.11741525e+00  2.13426185e+00  2.15132141e+00  2.20831270e+00
  2.26796233e+00  2.27973652e+00  2.29146189e+00  2.31956649e+00  2.33219487e+00
  2.45211046e+00  2.47026021e+00  2.51548771e+00  2.53323594e+00  2.54096152e+00
  2.60559794e+00  2.64136426e+00  2.65697100e+00  2.67565872e+00  2.70754764e+00
  2.77926025e+00  2.78483286e+00  2.84989354e+00  2.87743670e+00  2.96626256e+00
  3.09606443e+00  3.15472089e+00  3.19871381e+00  3.40923226e+00  4.01020892e+00
  4.16034182e+00  4.22393498e+00  4.23907768e+00  4.27093487e+00  4.35927955e+00
  4.40961714e+00  4.52058821e+00  4.60460338e+00  4.73676897e+00
Alpha MO coefficients                      R   N=       41616
  6.58183702e-06  9.97286629e-05  4.56928933e-06 -2.87761973e-06 -1.70100450e-05
 -3.11630116e-04  4.69076238e-04 -2.21066982e-04  6.21933060e-04 -4.17525525e-05
 -5.63392855e-06 -2.17607713e-05  1.26882402e-05 -4.07164662e-05  1.90886826e-05
  2.26031593e-02 -2.97014836e-02 -2.81498652e-02 -1.19295482e-03  7.42484145e-06
  3.48351553e-05 -1.45502507e-05 -8.39424858e-06 -1.92811367e-05 -3.72643928e-04
  3.64233740e-04  1.46417421e-04  2.18572557e-04  2.71549778e-06  1.32085211e-05
  1.58448660e-05 -1.09325742e-06 -3.69462458e-07  3.16366359e-06  1.55609435e-02
 -1.67901897e-02  6.85768635e-03 -2.14919408e-02  1.72370305e-05  4.01927799e-05
 -4.40593098e-06 -6.24626835e-06 -6.14316421e-06 -6.51932943e-04 -2.68828269e-04
  2.39962015e-04 -3.71618808e-04  3.13967405e-05  4.65959839e-05  4.19219440e-05
 -2.01104831e-05  8.18724759e-06 -2.58277792e-05 -3.81279845e-02 -4.98683166e-03
 -3.20003848e-02  2.24366000e-02 -9.16320115e-07 -6.65626902e-06 -4.73019192e-06
  2.64003732e-06 -2.89733469e-06  3.84560863e-04 -4.32196602e-05  1.62767650e-04
 -2.16605655e-04  1.18413594e-06 -2.76687601e-06 -2.75246741e-06  4.15626798e-06
 -3.12000307e-06  2.86288892e-06 -2.16184846e-02  1.23013933e-02 -3.04160217e-03
  1.47819579e-02  9.47592097e-07  5.09354801e-06  8.58580570e-06  5.43536305e-06
  8.72553809e-07 -1.20832484e-04 -9.14590945e-05 -1.22279173e-04  4.98362587e-05
  1.59021109e-06 -4.63418628e-07 -2.55080882e-07 -9.36380921e-07  2.91596431e-07
 -4.16212794e-07 -2.67247683e-03  1.05324220e-02  7.90017498e-03  1.90891128e-03
  2.79178043e-06  1.37611107e-05 -4.34185289e-06 -1.94315898e-06 -2.15093912e-06
 -8.44517505e-06 -5.60384417e-05 -1.45405429e-04  7.50074861e-05  4.10644192e-06
  2.43066909e-06  1.43778380e-06 -1.25388747e-08 -1.51338672e-06  5.01721578e-06
  1.65094523e-02  1.39961913e-03  1.31004433e-02 -1.01935401e-02 -9.77193881e-06
  7.58654270e-05  1.58562472e-05 -1.96474720e-04 -8.87800469e-07 -3.14896525e-05
  4.37617309e-06  9.24736846e-06 -4.95202151e-05  9.84513510e-05 -3.74332065e-04
 -7.84460823e-06 -1.70869019e-04  4.30429621e-04  7.78928137e-05 -6.11789887e-04
  6.53514026e-04  1.69717085e-04 -1.13542053e-04 -8.45905367e-05  2.09713770e-05
  1.25384451e-04 -2.16519317e-05  7.85552228e-03 -2.07278773e-03 -1.41401860e-03
  3.45054546e-04 -3.98662244e-05  1.20539675e-04 -1.51443562e-06  1.38295912e-06
 -3.48045479e-06 -2.35647790e-04 -6.61232221e-05 -3.60307164e-05  7.28046008e-06
 -3.77885645e-05  6.16202265e-05  7.19985919e-05 -4.60423782e-05 -1.64045940e-05
  1.00468697e-05  2.61091025e-03 -6.81003488e-04 -3.79444691e-04 -4.71260525e-05
  9.92521848e-01  2.52459178e-02  4.61369494e-04 -6.54127942e-04  7.51201602e-04
  1.58236370e-02 -3.43218548e-04  4.29064908e-04 -5.77567890e-04 -8.89659176e-03
 -8.74152176e-03 -8.73533328e-03 -1.77003227e-05 -8.53183567e-05  2.81213955e-05
 -8.87504459e-03 -1.03027039e-03 -2.34181038e-04  1.73224468e-04  3.98676216e-04
 -1.12147914e-03  1.81697133e-05  5.18636965e-05 -2.95569364e-07  4.56308722e-05
 -1.40741062e-05 -4.70263209e-04 -4.25863021e-05 -1.15231574e-04 -4.98871469e-05
  3.62252148e-05  6.17302526e-05  5.40169052e-05 -2.01486613e-05  7.36694793e-06
 -1.48066833e-05  4.04679539e-03  7.25739331e-04  1.97137382e-03 -8.74469826e-04
  1.65067932e-05 -3.31508244e-04  1.08144354e-06 -6.63230045e-05  6.56840198e-06
 -5.53098400e-05  7.81683109e-06  8.24764799e-06 -2.30304074e-05  9.17053609e-05
  3.02623029e-05 -1.42005445e-04  2.82327368e-04  1.30285512e-05  9.10507731e-05
  4.03440223e-05  4.25342786e-05 -3.57584603e-05 -5.30882280e-05  4.34106237e-03
 -6.00770300e-03 -4.49968424e-04 -5.18216256e-03  2.86247970e-06  4.39336301e-05
 -1.08944522e-05 -2.28540981e-05  1.28849139e-05 -2.79977771e-04  2.66541815e-04
  2.78926811e-04 -4.61425719e-05 -1.61548533e-06 -8.46955488e-06 -3.05256226e-05
  2.26257236e-05 -3.26298007e-06  2.40606467e-05  1.98242062e-02  3.23307374e-05
 -1.83467985e-03  1.98237129e-03 -7.35321601e-06 -1.09995579e-05 -4.07753736e-07
 -4.23350351e-05  2.16625446e-05 -3.24474375e-04 -2.29650898e-04  2.27113903e-04
 -3.97857804e-04 -2.90651580e-05 -3.49556620e-05 -2.07515455e-05 -1.56312243e-05
 -3.31135719e-06 -3.33418765e-06  5.89231310e-03  1.87840065e-03 -5.26048004e-03
  6.00355178e-03 -7.08631381e-06 -4.27825885e-05  1.36192450e-06  3.34642221e-06
  3.72447289e-07  6.25834004e-04  1.88087155e-05  2.67426293e-04 -2.30280911e-04
 -2.82786079e-06 -2.27316144e-06  1.00967194e-06  2.49884697e-06  8.38690107e-06
 -1.01661461e-05 -1.53841753e-02  9.64877051e-04 -1.62269633e-03  2.61193148e-03
  4.43611454e-06  2.61963354e-05 -1.83985208e-06 -1.14804199e-07 -1.42102940e-06
 -4.08499646e-04  2.35194540e-05 -2.31016489e-04  2.37493820e-04  1.59904289e-06
 -1.68886983e-07  1.40030311e-06 -4.39632771e-06 -2.44785027e-06  4.54913659e-06
  1.08429170e-03 -7.36010897e-04  1.78008999e-04 -8.83540498e-04 -6.11255619e-06
 -3.52122770e-05  6.56750830e-06  5.51240994e-06  1.05428113e-06  4.18261430e-04
 -3.36318187e-04 -1.60503529e-04 -1.46710455e-04 -3.19062514e-06 -3.64272874e-07
  2.28379441e-06  2.11727341e-06  9.87095305e-06 -1.30089913e-05 -9.76827893e-03
  5.92370290e-04 -2.16918625e-03  2.41784436e-03 -9.89540659e-06  1.27082386e-04
 -1.13691317e-05 -4.94191508e-04 -1.22158610e-05 -9.65687811e-05  1.19774663e-05
  1.62077925e-04  7.21640585e-06 -4.19441950e-04 -1.15158767e-04 -1.93956903e-04
  1.02247670e-04  1.41275718e-04  6.05949354e-04  5.80987862e-04 -2.05954284e-04
  2.84251495e-04  3.48512243e-04  1.82499521e-04  2.10899699e-04 -1.32101237e-04
 -8.14335030e-05 -8.13726008e-03 -2.42161289e-03 -3.56397077e-04 -5.99937963e-04
 -9.92568458e-01 -2.52378746e-02  8.24412599e-04  9.33171790e-04 -4.72148559e-04
 -1.56911328e-02 -3.10113826e-04 -2.38768364e-04  5.38171207e-05  8.59948401e-03
  8.57280567e-03  8.62384652e-03 -6.35161385e-05  3.58845760e-05  4.58489758e-05
  7.47744432e-03  2.28244772e-04 -1.15519168e-04  2.99234572e-04 -7.56186310e-05
 -1.19353783e-04  6.59713531e-06  1.03912872e-06  1.76225637e-06  5.20207451e-04
  1.03466815e-04  3.29106610e-05  1.12290216e-05  3.05597804e-05 -2.70460925e-05
 -7.96514847e-05  9.39056815e-05 -4.40038156e-05  1.29607118e-05 -1.31104398e-03
 -1.62758601e-04 -1.14739519e-04 -1.27099144e-05 -2.33687354e-05  2.15568470e-04
 -6.75615444e-06 -1.88572329e-05 -1.01482624e-05 -1.93103474e-05 -3.92997579e-07
 -1.19232969e-05  6.59703561e-06  1.80212962e-05  2.63846228e-05 -1.62108082e-05
 -2.39797802e-05 -1.09247212e-05 -1.31124576e-06  1.15520861e-05 -5.91825486e-06
 -4.16647134e-04 -2.73861916e-04 -9.70433501e-05 -1.47745909e-04 -1.37528661e-05
  1.12900251e-04  1.49867032e-06  6.64981931e-05 -1.43765047e-05 -2.46405755e-05
 -6.74131983e-06  1.93039464e-05 -3.30573194e-05  1.49789021e-03  1.53379878e-04
 -1.09274951e-03  1.17486626e-03 -5.83448043e-05 -2.63570865e-05 -2.04127107e-05
 -1.59372138e-05 -2.13854082e-05 -2.65762970e-05 -3.60476594e-03  1.35080890e-02
  6.00189094e-03  5.51526569e-03  8.25558927e-06  4.19801386e-05  1.30312364e-05
  7.79381741e-06  3.27463539e-06 -9.72543950e-04  3.02191841e-04  4.83680811e-04
 -1.90710034e-04  3.82657191e-06  1.36786496e-06  1.90927570e-05 -1.39871153e-05
  9.72437902e-06 -8.58389320e-07 -2.07355063e-02  4.95671516e-03  8.81102944e-04
  3.88546231e-03  2.29282327e-06  1.38330223e-04 -1.85251788e-04 -4.84446645e-05
 -1.12152878e-04 -6.84742519e-04 -1.57682984e-03 -1.17350550e-03 -6.20814393e-04
  7.16476959e-05 -2.81285717e-05  1.69637332e-05  4.69016184e-05  9.90763370e-05
  1.82835233e-05 -2.88886329e-03 -2.43647938e-03  1.36308858e-02 -1.28314950e-02
 -1.09615008e-05  2.61245718e-06  6.22788239e-06 -6.84737032e-06  1.18520829e-05
  7.20133052e-04  6.31292318e-04  6.57339606e-04  7.40159107e-05 -6.31361546e-05
  2.58375119e-06 -6.18204540e-05  8.87778909e-06 -4.59860909e-05 -1.70838461e-05
  2.61206357e-02 -3.36091175e-03  3.29716563e-03 -6.57855024e-03  1.94936641e-06
  1.07820065e-05  2.66202430e-06 -6.07173772e-06  9.75846084e-06 -7.68806890e-04
  2.39032098e-04 -7.61711140e-05  2.56511484e-04  8.27337814e-06  2.96569573e-06
 -1.83266894e-07  1.13741835e-05  5.81124260e-06  4.38826090e-06 -5.98066071e-03
 -2.29737135e-03 -2.93670352e-03  7.66056533e-04 -4.33123499e-06 -2.00650529e-05
  1.56457877e-06  4.16868902e-06 -4.54701188e-06  5.73097389e-04 -2.63649680e-04
  7.69889321e-06 -2.25803077e-04 -4.37681081e-06 -6.51729414e-06 -2.88820925e-06
 -1.47015165e-06  2.70727108e-06 -1.38960386e-06  6.70919381e-03 -1.53405201e-03
 -2.91753637e-03  1.13537965e-03  4.59020234e-05  2.47350288e-04 -1.81081469e-05
 -1.08411590e-04 -6.14554545e-07 -2.83304643e-05  8.23678866e-06  6.36737827e-05