Generated by Psi4
     FORCE                           RHF                       TESTBAS
Number of atoms                            I               25
Charge                                     I                0
Multiplicity                               I                1
Number of electrons                        I               98
Number of alpha electrons                  I               49
Number of beta electrons                   I               49
Number of basis functions                  I              271
Number of independent functions            I              271
Atomic numbers                             I   N=          25
           8           6           6           6           7           6
           7           6           8           8           1           1
           6           6           6           1           1           1
           1           1           1           1           1           1
           1
Nuclear charges                            R   N=          25
  8.00000000e+00  6.00000000e+00  6.00000000e+00  6.00000000e+00  7.00000000e+00
  6.00000000e+00  7.00000000e+00  6.00000000e+00  8.00000000e+00  8.00000000e+00
  1.00000000e+00  1.00000000e+00  6.00000000e+00  6.00000000e+00  6.00000000e+00
  1.00000000e+00  1.00000000e+00  1.00000000e+00  1.00000000e+00  1.00000000e+00
  1.00000000e+00  1.00000000e+00  1.00000000e+00  1.00000000e+00  1.00000000e+00
Current cartesian coordinates              R   N=          75
  1.91752576e+00 -3.62290886e+00  1.73870574e+00 -2.22194001e+00 -2.91462446e+00
 -1.75020853e+00 -1.23178163e+00 -7.91160295e-01  4.05561376e-03  1.37647909e+00
 -1.49918713e+00  1.03312891e+00  3.13572146e+00  4.44382304e-01  1.26892531e+00
  2.99224743e+00  2.85881065e+00  2.50925891e-01  7.56186698e-01  3.36415841e+00
 -1.02667790e+00 -1.27417192e+00  1.73946215e+00 -1.40876727e+00  4.69075748e+00
  4.39667079e+00  4.44805828e-01 -3.04492898e+00  2.40021688e+00 -2.72228069e+00
  6.55283875e-01  5.08737243e+00 -1.86679386e+00  4.81969583e+00 -1.12662590e-02
  2.07036519e+00 -6.64770795e-01 -3.30459698e+00 -4.16372109e+00 -3.05081036e+00
 -3.69061180e-01  2.33234339e+00 -3.53890965e+00 -2.66823174e+00  4.02341579e+00
 -4.83875121e+00  3.08108759e-01  1.53589310e+00 -2.29020752e+00  1.18122231e+00
  3.48453100e+00 -4.17639875e+00 -2.44802034e+00 -2.24350686e+00 -2.24279970e+00
 -4.66849464e+00 -6.60368133e-01 -4.49467815e+00 -4.19097033e+00  3.00107111e+00
 -4.77332574e+00 -2.09729754e+00  5.58624388e+00 -1.79717626e+00 -3.43685706e+00
  4.82830188e+00 -6.56881912e-01 -1.61187618e+00 -5.35689775e+00 -1.47382858e+00
 -4.84576353e+00 -5.28496553e+00  1.29503477e+00 -3.82104477e+00 -3.73323580e+00
Integer atomic weights                     I   N=          25
          15          12          12          12          14          12
          14          12          15          15           1           1
          12          12          12           1           1           1
           1           1           1           1           1           1
           1
Real atomic weights                        R   N=          25
  1.59949146e+01  1.20000000e+01  1.20000000e+01  1.20000000e+01  1.40030740e+01
  1.20000000e+01  1.40030740e+01  1.20000000e+01  1.59949146e+01  1.59949146e+01
  1.00782503e+00  1.00782503e+00  1.20000000e+01  1.20000000e+01  1.20000000e+01
  1.00782503e+00  1.00782503e+00  1.00782503e+00  1.00782503e+00  1.00782503e+00
  1.00782503e+00  1.00782503e+00  1.00782503e+00  1.00782503e+00  1.00782503e+00
Number of primitive shells                 I              269
Number of contracted shells                I              128
Pure/Cartesian d shells                    I                1
Pure/Cartesian f shells                    I                1
Highest angular momentum                   I                2
Largest degree of contraction              I                6
Shell types                                I   N=         128
           0           0           1           0           1           2
           0           1           0           0           1           0
           1           2           0           1           0           0
           1           0           1           2           0           1
           0           0           1           0           1           2
           0           1           0           0           1           0
           1           2           0           1           0           0
           1           0           1           2           0           1
           0           0           1           0           1           2
           0           1           0           0           1           0
           1           2           0           1           0           0
           1           0           1           2           0           1
           0           0           1           0           1           2
           0           1           0           0           0           0
           0           0           1           0           1           2
           0           1           0           0           1           0
           1           2           0           1           0           0
           1           0           1           2           0           1
           0           0           0           0           0           0
           0           0           0           0           0           0
           0           0           0           0           0           0
           0           0
Number of primitives per shell             I   N=         128
           6           3           3           1           1           1
           1           1           6           3           3           1
           1           1           1           1           6           3
           3           1           1           1           1           1
           6           3           3           1           1           1
           1           1           6           3           3           1
           1           1           1           1           6           3
           3           1           1           1           1           1
           6           3           3           1           1           1
           1           1           6           3           3           1
           1           1           1           1           6           3
           3           1           1           1           1           1
           6           3           3           1           1           1
           1           1           3           1           3           1
           6           3           3           1           1           1
           1           1           6           3           3           1
           1           1           1           1           6           3
           3           1           1           1           1           1
           3           1           3           1           3           1
           3           1           3           1           3           1
           3           1           3           1           3           1
           3           1
Shell to atom map                          I   N=         128
           1           1           1           1           1           1
           1           1           2           2           2           2
           2           2           2           2           3           3
           3           3           3           3           3           3
           4           4           4           4           4           4
           4           4           5           5           5           5
           5           5           5           5           6           6
           6           6           6           6           6           6
           7           7           7           7           7           7
           7           7           8           8           8           8
           8           8           8           8           9           9
           9           9           9           9           9           9
          10          10          10          10          10          10
          10          10          11          11          12          12
          13          13          13          13          13          13
          13          13          14          14          14          14
          14          14          14          14          15          15
          15          15          15          15          15          15
          16          16          17          17          18          18
          19          19          20          20          21          21
          22          22          23          23          24          24
          25          25
Primitive exponents                        R   N=         269
  5.48467170e+03  8.25234950e+02  1.88046960e+02  5.29645000e+01  1.68975700e+01
  5.79963530e+00  1.55396160e+01  3.59993360e+00  1.01376180e+00  1.55396160e+01
  3.59993360e+00  1.01376180e+00  2.70005800e-01  2.70005800e-01  8.00000000e-01
  8.45000000e-02  8.45000000e-02  3.04752490e+03  4.57369510e+02  1.03948690e+02
  2.92101550e+01  9.28666300e+00  3.16392700e+00  7.86827240e+00  1.88128850e+00
  5.44249300e-01  7.86827240e+00  1.88128850e+00  5.44249300e-01  1.68714400e-01
  1.68714400e-01  8.00000000e-01  4.38000000e-02  4.38000000e-02  3.04752490e+03
  4.57369510e+02  1.03948690e+02  2.92101550e+01  9.28666300e+00  3.16392700e+00
  7.86827240e+00  1.88128850e+00  5.44249300e-01  7.86827240e+00  1.88128850e+00
  5.44249300e-01  1.68714400e-01  1.68714400e-01  8.00000000e-01  4.38000000e-02
  4.38000000e-02  3.04752490e+03  4.57369510e+02  1.03948690e+02  2.92101550e+01
  9.28666300e+00  3.16392700e+00  7.86827240e+00  1.88128850e+00  5.44249300e-01
  7.86827240e+00  1.88128850e+00  5.44249300e-01  1.68714400e-01  1.68714400e-01
  8.00000000e-01  4.38000000e-02  4.38000000e-02  4.17351100e+03  6.27457900e+02
  1.42902100e+02  4.02343300e+01  1.28202100e+01  4.39043700e+00  1.16263580e+01
  2.71628000e+00  7.72218000e-01  1.16263580e+01  2.71628000e+00  7.72218000e-01
  2.12031300e-01  2.12031300e-01  8.00000000e-01  6.39000000e-02  6.39000000e-02
  3.04752490e+03  4.57369510e+02  1.03948690e+02  2.92101550e+01  9.28666300e+00
  3.16392700e+00  7.86827240e+00  1.88128850e+00  5.44249300e-01  7.86827240e+00
  1.88128850e+00  5.44249300e-01  1.68714400e-01  1.68714400e-01  8.00000000e-01
  4.38000000e-02  4.38000000e-02  4.17351100e+03  6.27457900e+02  1.42902100e+02
  4.02343300e+01  1.28202100e+01  4.39043700e+00  1.16263580e+01  2.71628000e+00
  7.72218000e-01  1.16263580e+01  2.71628000e+00  7.72218000e-01  2.12031300e-01
  2.12031300e-01  8.00000000e-01  6.39000000e-02  6.39000000e-02  3.04752490e+03
  4.57369510e+02  1.03948690e+02  2.92101550e+01  9.28666300e+00  3.16392700e+00
  7.86827240e+00  1.88128850e+00  5.44249300e-01  7.86827240e+00  1.88128850e+00
  5.44249300e-01  1.68714400e-01  1.68714400e-01  8.00000000e-01  4.38000000e-02
  4.38000000e-02  5.48467170e+03  8.25234950e+02  1.88046960e+02  5.29645000e+01
  1.68975700e+01  5.79963530e+00  1.55396160e+01  3.59993360e+00  1.01376180e+00
  1.55396160e+01  3.59993360e+00  1.01376180e+00  2.70005800e-01  2.70005800e-01
  8.00000000e-01  8.45000000e-02  8.45000000e-02  5.48467170e+03  8.25234950e+02
  1.88046960e+02  5.29645000e+01  1.68975700e+01  5.79963530e+00  1.55396160e+01
  3.59993360e+00  1.01376180e+00  1.55396160e+01  3.59993360e+00  1.01376180e+00
  2.70005800e-01  2.70005800e-01  8.00000000e-01  8.45000000e-02  8.45000000e-02
  1.87311370e+01  2.82539370e+00  6.40121700e-01  1.61277800e-01  1.87311370e+01
  2.82539370e+00  6.40121700e-01  1.61277800e-01  3.04752490e+03  4.57369510e+02
  1.03948690e+02  2.92101550e+01  9.28666300e+00  3.16392700e+00  7.86827240e+00
  1.88128850e+00  5.44249300e-01  7.86827240e+00  1.88128850e+00  5.44249300e-01
  1.68714400e-01  1.68714400e-01  8.00000000e-01  4.38000000e-02  4.38000000e-02
  3.04752490e+03  4.57369510e+02  1.03948690e+02  2.92101550e+01  9.28666300e+00
  3.16392700e+00  7.86827240e+00  1.88128850e+00  5.44249300e-01  7.86827240e+00
  1.88128850e+00  5.44249300e-01  1.68714400e-01  1.68714400e-01  8.00000000e-01
  4.38000000e-02  4.38000000e-02  3.04752490e+03  4.57369510e+02  1.03948690e+02
  2.92101550e+01  9.28666300e+00  3.16392700e+00  7.86827240e+00  1.88128850e+00
  5.44249300e-01  7.86827240e+00  1.88128850e+00  5.44249300e-01  1.68714400e-01
  1.68714400e-01  8.00000000e-01  4.38000000e-02  4.38000000e-02  1.87311370e+01
  2.82539370e+00  6.40121700e-01  1.61277800e-01  1.87311370e+01  2.82539370e+00
  6.40121700e-01  1.61277800e-01  1.87311370e+01  2.82539370e+00  6.40121700e-01
  1.61277800e-01  1.87311370e+01  2.82539370e+00  6.40121700e-01  1.61277800e-01
  1.87311370e+01  2.82539370e+00  6.40121700e-01  1.61277800e-01  1.87311370e+01
  2.82539370e+00  6.40121700e-01  1.61277800e-01  1.87311370e+01  2.82539370e+00
  6.40121700e-01  1.61277800e-01  1.87311370e+01  2.82539370e+00  6.40121700e-01
  1.61277800e-01  1.87311370e+01  2.82539370e+00  6.40121700e-01  1.61277800e-01
  1.87311370e+01  2.82539370e+00  6.40121700e-01  1.61277800e-01
Contraction coefficients                   R   N=         269
  1.83109981e-03  1.39500985e-02  6.84450927e-02  2.32714275e-01  4.70192950e-01
  3.58520862e-01 -1.10777504e-01 -1.48026305e-01  1.13076704e+00  7.08742995e-02
  3.39752798e-01  7.27158595e-01  1.00000000e+00  1.00000000e+00  1.00000000e+00
  1.00000000e+00  1.00000000e+00  1.83470016e-03  1.40373012e-02  6.88426061e-02
  2.32184421e-01  4.67941342e-01  3.62312032e-01 -1.19332409e-01 -1.60854212e-01
  1.14345648e+00  6.89990956e-02  3.16423980e-01  7.44308252e-01  1.00000000e+00
  1.00000000e+00  1.00000000e+00  1.00000000e+00  1.00000000e+00  1.83470016e-03
  1.40373012e-02  6.88426061e-02  2.32184421e-01  4.67941342e-01  3.62312032e-01
 -1.19332409e-01 -1.60854212e-01  1.14345648e+00  6.89990956e-02  3.16423980e-01
  7.44308252e-01  1.00000000e+00  1.00000000e+00  1.00000000e+00  1.00000000e+00
  1.00000000e+00  1.83470016e-03  1.40373012e-02  6.88426061e-02  2.32184421e-01
  4.67941342e-01  3.62312032e-01 -1.19332409e-01 -1.60854212e-01  1.14345648e+00
  6.89990956e-02  3.16423980e-01  7.44308252e-01  1.00000000e+00  1.00000000e+00
  1.00000000e+00  1.00000000e+00  1.00000000e+00  1.83479944e-03  1.39949958e-02
  6.85869792e-02  2.32240930e-01  4.69069858e-01  3.60454891e-01 -1.14961023e-01
 -1.69118034e-01  1.14585223e+00  6.75800232e-02  3.23907111e-01  7.40895255e-01
  1.00000000e+00  1.00000000e+00  1.00000000e+00  1.00000000e+00  1.00000000e+00
  1.83470016e-03  1.40373012e-02  6.88426061e-02  2.32184421e-01  4.67941342e-01
  3.62312032e-01 -1.19332409e-01 -1.60854212e-01  1.14345648e+00  6.89990956e-02
  3.16423980e-01  7.44308252e-01  1.00000000e+00  1.00000000e+00  1.00000000e+00
  1.00000000e+00  1.00000000e+00  1.83479944e-03  1.39949958e-02  6.85869792e-02
  2.32240930e-01  4.69069858e-01  3.60454891e-01 -1.14961023e-01 -1.69118034e-01
  1.14585223e+00  6.75800232e-02  3.23907111e-01  7.40895255e-01  1.00000000e+00
  1.00000000e+00  1.00000000e+00  1.00000000e+00  1.00000000e+00  1.83470016e-03
  1.40373012e-02  6.88426061e-02  2.32184421e-01  4.67941342e-01  3.62312032e-01
 -1.19332409e-01 -1.60854212e-01  1.14345648e+00  6.89990956e-02  3.16423980e-01
  7.44308252e-01  1.00000000e+00  1.00000000e+00  1.00000000e+00  1.00000000e+00
  1.00000000e+00  1.83109981e-03  1.39500985e-02  6.84450927e-02  2.32714275e-01
  4.70192950e-01  3.58520862e-01 -1.10777504e-01 -1.48026305e-01  1.13076704e+00
  7.08742995e-02  3.39752798e-01  7.27158595e-01  1.00000000e+00  1.00000000e+00
  1.00000000e+00  1.00000000e+00  1.00000000e+00  1.83109981e-03  1.39500985e-02
  6.84450927e-02  2.32714275e-01  4.70192950e-01  3.58520862e-01 -1.10777504e-01
 -1.48026305e-01  1.13076704e+00  7.08742995e-02  3.39752798e-01  7.27158595e-01
  1.00000000e+00  1.00000000e+00  1.00000000e+00  1.00000000e+00  1.00000000e+00
  3.34945995e-02  2.34726947e-01  8.13757318e-01  1.00000000e+00  3.34945995e-02
  2.34726947e-01  8.13757318e-01  1.00000000e+00  1.83470016e-03  1.40373012e-02
  6.88426061e-02  2.32184421e-01  4.67941342e-01  3.62312032e-01 -1.19332409e-01
 -1.60854212e-01  1.14345648e+00  6.89990956e-02  3.16423980e-01  7.44308252e-01
  1.00000000e+00  1.00000000e+00  1.00000000e+00  1.00000000e+00  1.00000000e+00
  1.83470016e-03  1.40373012e-02  6.88426061e-02  2.32184421e-01  4.67941342e-01
  3.62312032e-01 -1.19332409e-01 -1.60854212e-01  1.14345648e+00  6.89990956e-02
  3.16423980e-01  7.44308252e-01  1.00000000e+00  1.00000000e+00  1.00000000e+00
  1.00000000e+00  1.00000000e+00  1.83470016e-03  1.40373012e-02  6.88426061e-02
  2.32184421e-01  4.67941342e-01  3.62312032e-01 -1.19332409e-01 -1.60854212e-01
  1.14345648e+00  6.89990956e-02  3.16423980e-01  7.44308252e-01  1.00000000e+00
  1.00000000e+00  1.00000000e+00  1.00000000e+00  1.00000000e+00  3.34945995e-02
  2.34726947e-01  8.13757318e-01  1.00000000e+00  3.34945995e-02  2.34726947e-01
  8.13757318e-01  1.00000000e+00  3.34945995e-02  2.34726947e-01  8.13757318e-01
  1.00000000e+00  3.34945995e-02  2.34726947e-01  8.13757318e-01  1.00000000e+00
  3.34945995e-02  2.34726947e-01  8.13757318e-01  1.00000000e+00  3.34945995e-02
  2.34726947e-01  8.13757318e-01  1.00000000e+00  3.34945995e-02  2.34726947e-01
  8.13757318e-01  1.00000000e+00  3.34945995e-02  2.34726947e-01  8.13757318e-01
  1.00000000e+00  3.34945995e-02  2.34726947e-01  8.13757318e-01  1.00000000e+00
  3.34945995e-02  2.34726947e-01  8.13757318e-01  1.00000000e+00
Coordinates of each shell                  R   N=         384
  1.91752576e+00 -3.62290886e+00  1.73870574e+00  1.91752576e+00 -3.62290886e+00
  1.73870574e+00  1.91752576e+00 -3.62290886e+00  1.73870574e+00  1.91752576e+00
 -3.62290886e+00  1.73870574e+00  1.91752576e+00 -3.62290886e+00  1.73870574e+00
  1.91752576e+00 -3.62290886e+00  1.73870574e+00  1.91752576e+00 -3.62290886e+00
  1.73870574e+00  1.91752576e+00 -3.62290886e+00  1.73870574e+00 -2.22194001e+00
 -2.91462446e+00 -1.75020853e+00 -2.22194001e+00 -2.91462446e+00 -1.75020853e+00
 -2.22194001e+00 -2.91462446e+00 -1.75020853e+00 -2.22194001e+00 -2.91462446e+00
 -1.75020853e+00 -2.22194001e+00 -2.91462446e+00 -1.75020853e+00 -2.22194001e+00
 -2.91462446e+00 -1.75020853e+00 -2.22194001e+00 -2.91462446e+00 -1.75020853e+00
 -2.22194001e+00 -2.91462446e+00 -1.75020853e+00 -1.23178163e+00 -7.91160295e-01
  4.05561376e-03 -1.23178163e+00 -7.91160295e-01  4.05561376e-03 -1.23178163e+00
 -7.91160295e-01  4.05561376e-03 -1.23178163e+00 -7.91160295e-01  4.05561376e-03
 -1.23178163e+00 -7.91160295e-01  4.05561376e-03 -1.23178163e+00 -7.91160295e-01
  4.05561376e-03 -1.23178163e+00 -7.91160295e-01  4.05561376e-03 -1.23178163e+00
 -7.91160295e-01  4.05561376e-03  1.37647909e+00 -1.49918713e+00  1.03312891e+00
  1.37647909e+00 -1.49918713e+00  1.03312891e+00  1.37647909e+00 -1.49918713e+00
  1.03312891e+00  1.37647909e+00 -1.49918713e+00  1.03312891e+00  1.37647909e+00
 -1.49918713e+00  1.03312891e+00  1.37647909e+00 -1.49918713e+00  1.03312891e+00
  1.37647909e+00 -1.49918713e+00  1.03312891e+00  1.37647909e+00 -1.49918713e+00
  1.03312891e+00  3.13572146e+00  4.44382304e-01  1.26892531e+00  3.13572146e+00
  4.44382304e-01  1.26892531e+00  3.13572146e+00  4.44382304e-01  1.26892531e+00
  3.13572146e+00  4.44382304e-01  1.26892531e+00  3.13572146e+00  4.44382304e-01
  1.26892531e+00  3.13572146e+00  4.44382304e-01  1.26892531e+00  3.13572146e+00
  4.44382304e-01  1.26892531e+00  3.13572146e+00  4.44382304e-01  1.26892531e+00
  2.99224743e+00  2.85881065e+00  2.50925891e-01  2.99224743e+00  2.85881065e+00
  2.50925891e-01  2.99224743e+00  2.85881065e+00  2.50925891e-01  2.99224743e+00
  2.85881065e+00  2.50925891e-01  2.99224743e+00  2.85881065e+00  2.50925891e-01
  2.99224743e+00  2.85881065e+00  2.50925891e-01  2.99224743e+00  2.85881065e+00
  2.50925891e-01  2.99224743e+00  2.85881065e+00  2.50925891e-01  7.56186698e-01
  3.36415841e+00 -1.02667790e+00  7.56186698e-01  3.36415841e+00 -1.02667790e+00
  7.56186698e-01  3.36415841e+00 -1.02667790e+00  7.56186698e-01  3.36415841e+00
 -1.02667790e+00  7.56186698e-01  3.36415841e+00 -1.02667790e+00  7.56186698e-01
  3.36415841e+00 -1.02667790e+00  7.56186698e-01  3.36415841e+00 -1.02667790e+00
  7.56186698e-01  3.36415841e+00 -1.02667790e+00 -1.27417192e+00  1.73946215e+00
 -1.40876727e+00 -1.27417192e+00  1.73946215e+00 -1.40876727e+00 -1.27417192e+00
  1.73946215e+00 -1.40876727e+00 -1.27417192e+00  1.73946215e+00 -1.40876727e+00
 -1.27417192e+00  1.73946215e+00 -1.40876727e+00 -1.27417192e+00  1.73946215e+00
 -1.40876727e+00 -1.27417192e+00  1.73946215e+00 -1.40876727e+00 -1.27417192e+00
  1.73946215e+00 -1.40876727e+00  4.69075748e+00  4.39667079e+00  4.44805828e-01
  4.69075748e+00  4.39667079e+00  4.44805828e-01  4.69075748e+00  4.39667079e+00
  4.44805828e-01  4.69075748e+00  4.39667079e+00  4.44805828e-01  4.69075748e+00
  4.39667079e+00  4.44805828e-01  4.69075748e+00  4.39667079e+00  4.44805828e-01
  4.69075748e+00  4.39667079e+00  4.44805828e-01  4.69075748e+00  4.39667079e+00
  4.44805828e-01 -3.04492898e+00  2.40021688e+00 -2.72228069e+00 -3.04492898e+00
  2.40021688e+00 -2.72228069e+00 -3.04492898e+00  2.40021688e+00 -2.72228069e+00
 -3.04492898e+00  2.40021688e+00 -2.72228069e+00 -3.04492898e+00  2.40021688e+00
 -2.72228069e+00 -3.04492898e+00  2.40021688e+00 -2.72228069e+00 -3.04492898e+00
  2.40021688e+00 -2.72228069e+00 -3.04492898e+00  2.40021688e+00 -2.72228069e+00
  6.55283875e-01  5.08737243e+00 -1.86679386e+00  6.55283875e-01  5.08737243e+00
 -1.86679386e+00  4.81969583e+00 -1.12662590e-02  2.07036519e+00  4.81969583e+00
 -1.12662590e-02  2.07036519e+00 -6.64770795e-01 -3.30459698e+00 -4.16372109e+00
 -6.64770795e-01 -3.30459698e+00 -4.16372109e+00 -6.64770795e-01 -3.30459698e+00
 -4.16372109e+00 -6.64770795e-01 -3.30459698e+00 -4.16372109e+00 -6.64770795e-01
 -3.30459698e+00 -4.16372109e+00 -6.64770795e-01 -3.30459698e+00 -4.16372109e+00
 -6.64770795e-01 -3.30459698e+00 -4.16372109e+00 -6.64770795e-01 -3.30459698e+00
 -4.16372109e+00 -3.05081036e+00 -3.69061180e-01  2.33234339e+00 -3.05081036e+00
 -3.69061180e-01  2.33234339e+00 -3.05081036e+00 -3.69061180e-01  2.33234339e+00
 -3.05081036e+00 -3.69061180e-01  2.33234339e+00 -3.05081036e+00 -3.69061180e-01
  2.33234339e+00 -3.05081036e+00 -3.69061180e-01  2.33234339e+00 -3.05081036e+00
 -3.69061180e-01  2.33234339e+00 -3.05081036e+00 -3.69061180e-01  2.33234339e+00
 -3.53890965e+00 -2.66823174e+00  4.02341579e+00 -3.53890965e+00 -2.66823174e+00
  4.02341579e+00 -3.53890965e+00 -2.66823174e+00  4.02341579e+00 -3.53890965e+00
 -2.66823174e+00  4.02341579e+00 -3.53890965e+00 -2.66823174e+00  4.02341579e+00
 -3.53890965e+00 -2.66823174e+00  4.02341579e+00 -3.53890965e+00 -2.66823174e+00
  4.02341579e+00 -3.53890965e+00 -2.66823174e+00  4.02341579e+00 -4.83875121e+00
  3.08108759e-01  1.53589310e+00 -4.83875121e+00  3.08108759e-01  1.53589310e+00
 -2.29020752e+00  1.18122231e+00  3.48453100e+00 -2.29020752e+00  1.18122231e+00
  3.48453100e+00 -4.17639875e+00 -2.44802034e+00 -2.24350686e+00 -4.17639875e+00
 -2.44802034e+00 -2.24350686e+00 -2.24279970e+00 -4.66849464e+00 -6.60368133e-01
 -2.24279970e+00 -4.66849464e+00 -6.60368133e-01 -4.49467815e+00 -4.19097033e+00
  3.00107111e+00 -4.49467815e+00 -4.19097033e+00  3.00107111e+00 -4.77332574e+00
 -2.09729754e+00  5.58624388e+00 -4.77332574e+00 -2.09729754e+00  5.58624388e+00
 -1.79717626e+00 -3.43685706e+00  4.82830188e+00 -1.79717626e+00 -3.43685706e+00
  4.82830188e+00 -6.56881912e-01 -1.61187618e+00 -5.35689775e+00 -6.56881912e-01
 -1.61187618e+00 -5.35689775e+00 -1.47382858e+00 -4.84576353e+00 -5.28496553e+00
 -1.47382858e+00 -4.84576353e+00 -5.28496553e+00  1.29503477e+00 -3.82104477e+00
 -3.73323580e+00  1.29503477e+00 -3.82104477e+00 -3.73323580e+00
Total Energy                               R     -6.473418701992867e+02
Alpha Orbital Energies                     R   N=         271
 -1.91698049e+01 -1.91691873e+01 -1.91688519e+01 -1.44199779e+01 -1.44194679e+01
 -1.03716105e+01 -1.03393802e+01 -1.03392425e+01 -1.02522954e+01 -1.02244548e+01
 -1.02078230e+01 -1.01947543e+01 -1.01910259e+01 -1.11193975e+00 -1.08503247e+00
 -1.08198170e+00 -9.87669478e-01 -9.48806168e-01 -8.54618516e-01 -7.75224214e-01
 -7.42265825e-01 -6.99324026e-01 -6.75874424e-01 -6.52673733e-01 -6.39830543e-01
 -5.88732924e-01 -5.76011208e-01 -5.23094974e-01 -5.13061171e-01 -4.84986548e-01
 -4.76475198e-01 -4.71560037e-01 -4.67602860e-01 -4.63547100e-01 -4.55914279e-01
 -4.31460878e-01 -4.21913638e-01 -4.08504752e-01 -3.96756814e-01 -3.87360626e-01
 -3.75629602e-01 -3.69376967e-01 -3.60969459e-01 -3.46330651e-01 -3.29778505e-01
 -3.18326300e-01 -3.17160992e-01 -3.08029310e-01 -2.83530825e-01 -6.44917026e-02
 -2.75148806e-02 -1.04712645e-02  4.33065441e-03  8.68257540e-03  1.07913197e-02
  2.58692888e-02  3.06213384e-02  3.58316692e-02  4.36634891e-02  4.93670320e-02
  5.46163599e-02  5.83771579e-02  7.05731823e-02  7.16597986e-02  7.61062854e-02
  8.11555102e-02  9.19506931e-02  9.30616876e-02  9.55745629e-02  1.09500398e-01
  1.14639270e-01  1.17037119e-01  1.23406654e-01  1.27128143e-01  1.31814005e-01
  1.39772644e-01  1.44545154e-01  1.53438596e-01  1.57150101e-01  1.61379810e-01
  1.66129495e-01  1.71034649e-01  1.76292148e-01  1.87262010e-01  1.91708735e-01
  1.95748959e-01  1.98246244e-01  2.04714485e-01  2.12597086e-01  2.15923053e-01
  2.18796052e-01  2.20003142e-01  2.26836993e-01  2.31245531e-01  2.41612799e-01
  2.42820765e-01  2.50201134e-01  2.51611264e-01  2.59784162e-01  2.60433774e-01
  2.66596638e-01  2.81690155e-01  2.88011937e-01  2.92853249e-01  2.98464039e-01
  3.00206009e-01  3.12038978e-01  3.14874768e-01  3.15654787e-01  3.23571235e-01
  3.29069074e-01  3.30948890e-01  3.35572977e-01  3.41388848e-01  3.42860278e-01
  3.62446402e-01  3.65494559e-01  3.81772024e-01  3.90124167e-01  4.00948925e-01
  4.13381742e-01  4.22407589e-01  4.42089970e-01  4.50157129e-01  4.81069369e-01
  4.88222337e-01  4.93847651e-01  5.16194924e-01  5.26252636e-01  6.32788104e-01
  6.47268798e-01  6.63712696e-01  6.93194688e-01  6.93927570e-01  7.00456328e-01
  7.10407954e-01  7.21595822e-01  7.28373026e-01  7.41296624e-01  7.47928208e-01
  7.51483889e-01  7.92831030e-01  7.98919662e-01  8.12450636e-01  8.27697114e-01
  8.39924136e-01  8.67845106e-01  8.80938015e-01  8.98353265e-01  9.25170965e-01
  9.29242597e-01  9.42251430e-01  9.50349726e-01  9.67448252e-01  9.82471510e-01
  9.92078126e-01  1.00245454e+00  1.01620790e+00  1.02566844e+00  1.03932280e+00
  1.06333142e+00  1.07364378e+00  1.08689267e+00  1.10049275e+00  1.11820696e+00
  1.13579322e+00  1.14411192e+00  1.15011176e+00  1.18246929e+00  1.21793721e+00
  1.22657626e+00  1.23140868e+00  1.24312361e+00  1.25479555e+00  1.27151509e+00
  1.27965877e+00  1.30654177e+00  1.30918725e+00  1.32114737e+00  1.32616293e+00
  1.35513988e+00  1.36657292e+00  1.37268294e+00  1.37990317e+00  1.39976552e+00
  1.41591703e+00  1.41664611e+00  1.43297135e+00  1.45144737e+00  1.48107863e+00
  1.51204541e+00  1.52371080e+00  1.56955715e+00  1.58933699e+00  1.62900486e+00
  1.64343898e+00  1.68266770e+00  1.69690644e+00  1.71531873e+00  1.73915688e+00
  1.75844890e+00  1.76735914e+00  1.77554296e+00  1.79291304e+00  1.82380151e+00
  1.84725990e+00  1.85813866e+00  1.87326977e+00  1.89173647e+00  1.89562447e+00
  1.90926791e+00  1.93509648e+00  1.95571492e+00  1.96872149e+00  1.97664041e+00
  1.98844595e+00  2.01909518e+00  2.02511639e+00  2.03918883e+00  2.07158773e+00
  2.07809177e+00  2.09509828e+00  2.10097435e+00  2.12801395e+00  2.13570777e+00
  2.17945024e+00  2.21629377e+00  2.24344522e+00  2.26428780e+00  2.29539261e+00
  2.32334728e+00  2.33551642e+00  2.35989647e+00  2.36305577e+00  2.38802602e+00
  2.39396135e+00  2.40553270e+00  2.41420626e+00  2.45688546e+00  2.56282098e+00
  2.58388160e+00  2.58508900e+00  2.60274414e+00  2.65511812e+00  2.67727825e+00
  2.69140248e+00  2.72906965e+00  2.76795370e+00  2.80055761e+00  2.82894268e+00
  2.93211303e+00  2.98445071e+00  2.99262792e+00  3.12249075e+00  3.20748175e+00
  3.21125497e+00  3.24677178e+00  3.32398712e+00  4.12300760e+00  4.22003095e+00
  4.23884048e+00  4.26570749e+00  4.37866375e+00  4.39075317e+00  4.41864755e+00
  4.50352998e+00  4.53283690e+00  4.60052551e+00  4.71862570e+00  4.77673200e+00
  4.93760083e+00
Alpha MO coefficients                      R   N=       73441
  9.92496298e-01  2.49204330e-02 -2.55695397e-04  1.25090374e-03 -3.84871901e-04
  1.74805084e-02 -1.49142015e-04 -3.73752110e-04  5.11212694e-05 -8.83867261e-03
 -8.75819214e-03 -8.83368094e-03 -3.51500032e-05  1.41204336e-05 -3.78030110e-05
 -1.18270748e-02  1.12247884e-03 -4.49338043e-04  4.36739094e-04 -3.18439951e-07
 -3.58623307e-05 -1.06727567e-05  5.14178093e-06  3.38025597e-05 -7.30079060e-05
  3.56377339e-04 -4.46510731e-05 -1.42297810e-04  3.66955258e-05 -1.20385826e-05
  2.67350747e-05 -1.47093448e-06  2.27373717e-05 -6.64009580e-06 -5.39797371e-03
 -8.25879418e-04 -5.35466048e-04 -1.80228773e-03  7.44544099e-06  7.40272837e-05
  1.02733049e-05 -4.54386793e-06 -3.85856217e-06 -3.15073943e-04 -2.46530052e-04
 -1.57131440e-04  1.26149912e-04  1.47802161e-05 -2.80148904e-05  3.23555315e-07
  4.61116998e-05 -1.49051454e-05  1.15666257e-05 -6.87194001e-03 -3.86054493e-04
 -4.92838052e-03 -2.98461240e-03 -1.33360865e-05  3.81088906e-04  6.80297745e-05
 -2.27107659e-04  8.57583010e-05  1.14721621e-05 -2.26843107e-04  1.13579885e-03
 -3.95844539e-04 -1.27438519e-04 -4.47013797e-04 -1.86336534e-04  9.97119801e-05
 -3.78495619e-06  1.12450604e-04  9.16737298e-03 -5.17129321e-03 -4.74969711e-03
 -4.10090809e-04 -3.58358705e-07  7.56853266e-05  6.82707728e-06  1.59865198e-05
  1.94083012e-06 -2.45123385e-04  7.15033044e-05 -8.28490449e-05  4.63033444e-05
  3.43199680e-05 -1.69485934e-04  1.33916329e-06 -2.33127611e-05  2.15157557e-05