Generated by Psi4
     FORCE                           RHF                       TESTBAS
Number of atoms                            I               38
Charge                                     I                0
Multiplicity                               I                1
Number of electrons                        I              136
Number of alpha electrons                  I               68
Number of beta electrons                   I               68
Number of basis functions                  I              399
Number of independent functions            I              399
Atomic numbers                             I   N=          38
           6           6           6           7           6           6
           6           6           6           1           1           1
           6           6           1           6           1           1
           1           6           1           1           1           1
           8           1           1           1           6           6
           6           6           6           1           1           1
           1           1
Nuclear charges                            R   N=          38
  6.00000000e+00  6.00000000e+00  6.00000000e+00  7.00000000e+00  6.00000000e+00
  6.00000000e+00  6.00000000e+00  6.00000000e+00  6.00000000e+00  1.00000000e+00
  1.00000000e+00  1.00000000e+00  6.00000000e+00  6.00000000e+00  1.00000000e+00
  6.00000000e+00  1.00000000e+00  1.00000000e+00  1.00000000e+00  6.00000000e+00
  1.00000000e+00  1.00000000e+00  1.00000000e+00  1.00000000e+00  8.00000000e+00
  1.00000000e+00  1.00000000e+00  1.00000000e+00  6.00000000e+00  6.00000000e+00
  6.00000000e+00  6.00000000e+00  6.00000000e+00  1.00000000e+00  1.00000000e+00
  1.00000000e+00  1.00000000e+00  1.00000000e+00
Current cartesian coordinates              R   N=         114
  2.21313318e+00 -9.90989928e-01 -2.81119180e+00 -4.36108371e+00 -1.20046239e+00
 -3.54576833e+00 -3.25730640e+00  1.01526765e+00 -2.01185005e+00 -2.34781359e+00
  1.87271145e-01  4.87479201e-01  1.39180646e+00  1.27351657e+00 -3.92676278e+00
  3.07911557e+00  2.58881042e+00 -5.51201667e+00  5.49404629e+00  1.66474471e+00
 -5.96540204e+00  6.32426670e+00 -6.05733195e-01 -4.85825145e+00  4.64415993e+00
 -1.90578612e+00 -3.27980948e+00  5.24463679e+00 -3.66052914e+00 -2.39269229e+00
  2.44610486e+00  4.33786187e+00 -6.37675539e+00  6.76450964e+00  2.71170483e+00
 -7.19834650e+00  8.95429023e+00 -1.59184489e+00 -5.36290872e+00 -1.19197236e+00
  2.36813700e+00 -3.56321411e+00 -4.74958663e+00  2.45804485e+00 -1.82088339e+00
 -4.39336936e+00 -3.20894761e-01  2.30496101e+00 -1.21448477e+00  1.55434823e+00
  1.23823673e+00 -5.42206850e+00 -2.00053506e+00  1.66174528e+00 -5.77730847e+00
  1.24274094e+00  2.37510431e+00 -3.34413496e+00 -7.81422403e-01  4.92660013e+00
  9.66174576e-01 -2.00415916e+00 -1.54035388e+00 -2.97371333e+00 -2.71314630e+00
 -3.79831912e+00 -4.96811548e+00 -5.38505423e-01 -5.41116941e+00 -6.02176407e+00
 -1.99200730e+00 -2.59729818e+00 -1.76729223e+00  4.36668596e+00 -4.58816527e+00
  1.03947839e+01 -2.33909142e-01 -4.74428753e+00  9.25660997e+00 -1.91769636e+00
 -7.38865788e+00  9.29837274e+00 -3.37628093e+00 -4.37428216e+00 -1.89169490e+00
 -2.94172833e+00  5.43518311e+00 -9.05309890e-01 -3.36572699e+00  7.84403062e+00
 -1.35669258e+00 -1.63033073e+00  9.78837153e+00 -2.79715579e+00  5.26544813e-01
  9.30398540e+00 -3.78088922e+00  9.44322216e-01  6.88542615e+00 -4.90669250e+00
  2.62614391e+00  6.51973348e+00 -5.91841577e-01 -1.96202663e+00  1.16659005e+01
 -3.15887528e+00  1.88482865e+00  1.08023442e+01 -1.53356099e+00 -4.28840167e+00
  3.92487903e+00  2.11061811e-01 -5.05157689e+00  8.20936465e+00
Integer atomic weights                     I   N=          38
          12          12          12          14          12          12
          12          12          12           1           1           1
          12          12           1          12           1           1
           1          12           1           1           1           1
          15           1           1           1          12          12
          12          12          12           1           1           1
           1           1
Real atomic weights                        R   N=          38
  1.20000000e+01  1.20000000e+01  1.20000000e+01  1.40030740e+01  1.20000000e+01
  1.20000000e+01  1.20000000e+01  1.20000000e+01  1.20000000e+01  1.00782503e+00
  1.00782503e+00  1.00782503e+00  1.20000000e+01  1.20000000e+01  1.00782503e+00
  1.20000000e+01  1.00782503e+00  1.00782503e+00  1.00782503e+00  1.20000000e+01
  1.00782503e+00  1.00782503e+00  1.00782503e+00  1.00782503e+00  1.59949146e+01
  1.00782503e+00  1.00782503e+00  1.00782503e+00  1.20000000e+01  1.20000000e+01
  1.20000000e+01  1.20000000e+01  1.20000000e+01  1.00782503e+00  1.00782503e+00
  1.00782503e+00  1.00782503e+00  1.00782503e+00
Number of primitive shells                 I              399
Number of contracted shells                I              190
Pure/Cartesian d shells                    I                1
Pure/Cartesian f shells                    I                1
Highest angular momentum                   I                2
Largest degree of contraction              I                6
Shell types                                I   N=         190
           0           0           1           0           1           2
           0           1           0           0           1           0
           1           2           0           1           0           0
           1           0           1           2           0           1
           0           0           1           0           1           2
           0           1           0           0           1           0
           1           2           0           1           0           0
           1           0           1           2           0           1
           0           0           1           0           1           2
           0           1           0           0           1           0
           1           2           0           1           0           0
           1           0           1           2           0           1
           0           0           0           0           0           0
           0           0           1           0           1           2
           0           1           0           0           1           0
           1           2           0           1           0           0
           0           0           1           0           1           2
           0           1           0           0           0           0
           0           0           0           0           1           0
           1           2           0           1           0           0
           0           0           0           0           0           0
           0           0           1           0           1           2
           0           1           0           0           0           0
           0           0           0           0           1           0
           1           2           0           1           0           0
           1           0           1           2           0           1
           0           0           1           0           1           2
           0           1           0           0           1           0
           1           2           0           1           0           0
           1           0           1           2           0           1
           0           0           0           0           0           0
           0           0           0           0
Number of primitives per shell             I   N=         190
           6           3           3           1           1           1
           1           1           6           3           3           1
           1           1           1           1           6           3
           3           1           1           1           1           1
           6           3           3           1           1           1
           1           1           6           3           3           1
           1           1           1           1           6           3
           3           1           1           1           1           1
           6           3           3           1           1           1
           1           1           6           3           3           1
           1           1           1           1           6           3
           3           1           1           1           1           1
           3           1           3           1           3           1
           6           3           3           1           1           1
           1           1           6           3           3           1
           1           1           1           1           3           1
           6           3           3           1           1           1
           1           1           3           1           3           1
           3           1           6           3           3           1
           1           1           1           1           3           1
           3           1           3           1           3           1
           6           3           3           1           1           1
           1           1           3           1           3           1
           3           1           6           3           3           1
           1           1           1           1           6           3
           3           1           1           1           1           1
           6           3           3           1           1           1
           1           1           6           3           3           1
           1           1           1           1           6           3
           3           1           1           1           1           1
           3           1           3           1           3           1
           3           1           3           1
Shell to atom map                          I   N=         190
           1           1           1           1           1           1
           1           1           2           2           2           2
           2           2           2           2           3           3
           3           3           3           3           3           3
           4           4           4           4           4           4
           4           4           5           5           5           5
           5           5           5           5           6           6
           6           6           6           6           6           6
           7           7           7           7           7           7
           7           7           8           8           8           8
           8           8           8           8           9           9
           9           9           9           9           9           9
          10          10          11          11          12          12
          13          13          13          13          13          13
          13          13          14          14          14          14
          14          14          14          14          15          15
          16          16          16          16          16          16
          16          16          17          17          18          18
          19          19          20          20          20          20
          20          20          20          20          21          21
          22          22          23          23          24          24
          25          25          25          25          25          25
          25          25          26          26          27          27
          28          28          29          29          29          29
          29          29          29          29          30          30
          30          30          30          30          30          30
          31          31          31          31          31          31
          31          31          32          32          32          32
          32          32          32          32          33          33
          33          33          33          33          33          33
          34          34          35          35          36          36
          37          37          38          38
Primitive exponents                        R   N=         399
  3.04752490e+03  4.57369510e+02  1.03948690e+02  2.92101550e+01  9.28666300e+00
  3.16392700e+00  7.86827240e+00  1.88128850e+00  5.44249300e-01  7.86827240e+00
  1.88128850e+00  5.44249300e-01  1.68714400e-01  1.68714400e-01  8.00000000e-01
  4.38000000e-02  4.38000000e-02  3.04752490e+03  4.57369510e+02  1.03948690e+02
  2.92101550e+01  9.28666300e+00  3.16392700e+00  7.86827240e+00  1.88128850e+00
  5.44249300e-01  7.86827240e+00  1.88128850e+00  5.44249300e-01  1.68714400e-01
  1.68714400e-01  8.00000000e-01  4.38000000e-02  4.38000000e-02  3.04752490e+03
  4.57369510e+02  1.03948690e+02  2.92101550e+01  9.28666300e+00  3.16392700e+00
  7.86827240e+00  1.88128850e+00  5.44249300e-01  7.86827240e+00  1.88128850e+00
  5.44249300e-01  1.68714400e-01  1.68714400e-01  8.00000000e-01  4.38000000e-02
  4.38000000e-02  4.17351100e+03  6.27457900e+02  1.42902100e+02  4.02343300e+01
  1.28202100e+01  4.39043700e+00  1.16263580e+01  2.71628000e+00  7.72218000e-01
  1.16263580e+01  2.71628000e+00  7.72218000e-01  2.12031300e-01  2.12031300e-01
  8.00000000e-01  6.39000000e-02  6.39000000e-02  3.04752490e+03  4.57369510e+02
  1.03948690e+02  2.92101550e+01  9.28666300e+00  3.16392700e+00  7.86827240e+00
  1.88128850e+00  5.44249300e-01  7.86827240e+00  1.88128850e+00  5.44249300e-01
  1.68714400e-01  1.68714400e-01  8.00000000e-01  4.38000000e-02  4.38000000e-02
  3.04752490e+03  4.57369510e+02  1.03948690e+02  2.92101550e+01  9.28666300e+00
  3.16392700e+00  7.86827240e+00  1.88128850e+00  5.44249300e-01  7.86827240e+00
  1.88128850e+00  5.44249300e-01  1.68714400e-01  1.68714400e-01  8.00000000e-01
  4.38000000e-02  4.38000000e-02  3.04752490e+03  4.57369510e+02  1.03948690e+02
  2.92101550e+01  9.28666300e+00  3.16392700e+00  7.86827240e+00  1.88128850e+00
  5.44249300e-01  7.86827240e+00  1.88128850e+00  5.44249300e-01  1.68714400e-01
  1.68714400e-01  8.00000000e-01  4.38000000e-02  4.38000000e-02  3.04752490e+03
  4.57369510e+02  1.03948690e+02  2.92101550e+01  9.28666300e+00  3.16392700e+00
  7.86827240e+00  1.88128850e+00  5.44249300e-01  7.86827240e+00  1.88128850e+00
  5.44249300e-01  1.68714400e-01  1.68714400e-01  8.00000000e-01  4.38000000e-02
  4.38000000e-02  3.04752490e+03  4.57369510e+02  1.03948690e+02  2.92101550e+01
  9.28666300e+00  3.16392700e+00  7.86827240e+00  1.88128850e+00  5.44249300e-01
  7.86827240e+00  1.88128850e+00  5.44249300e-01  1.68714400e-01  1.68714400e-01
  8.00000000e-01  4.38000000e-02  4.38000000e-02  1.87311370e+01  2.82539370e+00
  6.40121700e-01  1.61277800e-01  1.87311370e+01  2.82539370e+00  6.40121700e-01
  1.61277800e-01  1.87311370e+01  2.82539370e+00  6.40121700e-01  1.61277800e-01
  3.04752490e+03  4.57369510e+02  1.03948690e+02  2.92101550e+01  9.28666300e+00
  3.16392700e+00  7.86827240e+00  1.88128850e+00  5.44249300e-01  7.86827240e+00
  1.88128850e+00  5.44249300e-01  1.68714400e-01  1.68714400e-01  8.00000000e-01
  4.38000000e-02  4.38000000e-02  3.04752490e+03  4.57369510e+02  1.03948690e+02
  2.92101550e+01  9.28666300e+00  3.16392700e+00  7.86827240e+00  1.88128850e+00
  5.44249300e-01  7.86827240e+00  1.88128850e+00  5.44249300e-01  1.68714400e-01
  1.68714400e-01  8.00000000e-01  4.38000000e-02  4.38000000e-02  1.87311370e+01
  2.82539370e+00  6.40121700e-01  1.61277800e-01  3.04752490e+03  4.57369510e+02
  1.03948690e+02  2.92101550e+01  9.28666300e+00  3.16392700e+00  7.86827240e+00
  1.88128850e+00  5.44249300e-01  7.86827240e+00  1.88128850e+00  5.44249300e-01
  1.68714400e-01  1.68714400e-01  8.00000000e-01  4.38000000e-02  4.38000000e-02
  1.87311370e+01  2.82539370e+00  6.40121700e-01  1.61277800e-01  1.87311370e+01
  2.82539370e+00  6.40121700e-01  1.61277800e-01  1.87311370e+01  2.82539370e+00
  6.40121700e-01  1.61277800e-01  3.04752490e+03  4.57369510e+02  1.03948690e+02
  2.92101550e+01  9.28666300e+00  3.16392700e+00  7.86827240e+00  1.88128850e+00
  5.44249300e-01  7.86827240e+00  1.88128850e+00  5.44249300e-01  1.68714400e-01
  1.68714400e-01  8.00000000e-01  4.38000000e-02  4.38000000e-02  1.87311370e+01
  2.82539370e+00  6.40121700e-01  1.61277800e-01  1.87311370e+01  2.82539370e+00
  6.40121700e-01  1.61277800e-01  1.87311370e+01  2.82539370e+00  6.40121700e-01
  1.61277800e-01  1.87311370e+01  2.82539370e+00  6.40121700e-01  1.61277800e-01
  5.48467170e+03  8.25234950e+02  1.88046960e+02  5.29645000e+01  1.68975700e+01
  5.79963530e+00  1.55396160e+01  3.59993360e+00  1.01376180e+00  1.55396160e+01
  3.59993360e+00  1.01376180e+00  2.70005800e-01  2.70005800e-01  8.00000000e-01
  8.45000000e-02  8.45000000e-02  1.87311370e+01  2.82539370e+00  6.40121700e-01
  1.61277800e-01  1.87311370e+01  2.82539370e+00  6.40121700e-01  1.61277800e-01
  1.87311370e+01  2.82539370e+00  6.40121700e-01  1.61277800e-01  3.04752490e+03
  4.57369510e+02  1.03948690e+02  2.92101550e+01  9.28666300e+00  3.16392700e+00
  7.86827240e+00  1.88128850e+00  5.44249300e-01  7.86827240e+00  1.88128850e+00
  5.44249300e-01  1.68714400e-01  1.68714400e-01  8.00000000e-01  4.38000000e-02
  4.38000000e-02  3.04752490e+03  4.57369510e+02  1.03948690e+02  2.92101550e+01
  9.28666300e+00  3.16392700e+00  7.86827240e+00  1.88128850e+00  5.44249300e-01
  7.86827240e+00  1.88128850e+00  5.44249300e-01  1.68714400e-01  1.68714400e-01
  8.00000000e-01  4.38000000e-02  4.38000000e-02  3.04752490e+03  4.57369510e+02
  1.03948690e+02  2.92101550e+01  9.28666300e+00  3.16392700e+00  7.86827240e+00
  1.88128850e+00  5.44249300e-01  7.86827240e+00  1.88128850e+00  5.44249300e-01
  1.68714400e-01  1.68714400e-01  8.00000000e-01  4.38000000e-02  4.38000000e-02
  3.04752490e+03  4.57369510e+02  1.03948690e+02  2.92101550e+01  9.28666300e+00
  3.16392700e+00  7.86827240e+00  1.88128850e+00  5.44249300e-01  7.86827240e+00
  1.88128850e+00  5.44249300e-01  1.68714400e-01  1.68714400e-01  8.00000000e-01
  4.38000000e-02  4.38000000e-02  3.04752490e+03  4.57369510e+02  1.03948690e+02
  2.92101550e+01  9.28666300e+00  3.16392700e+00  7.86827240e+00  1.88128850e+00
  5.44249300e-01  7.86827240e+00  1.88128850e+00  5.44249300e-01  1.68714400e-01
  1.68714400e-01  8.00000000e-01  4.38000000e-02  4.38000000e-02  1.87311370e+01
  2.82539370e+00  6.40121700e-01  1.61277800e-01  1.87311370e+01  2.82539370e+00
  6.40121700e-01  1.61277800e-01  1.87311370e+01  2.82539370e+00  6.40121700e-01
  1.61277800e-01  1.87311370e+01  2.82539370e+00  6.40121700e-01  1.61277800e-01
  1.87311370e+01  2.82539370e+00  6.40121700e-01  1.61277800e-01
Contraction coefficients                   R   N=         399
  1.83470016e-03  1.40373012e-02  6.88426061e-02  2.32184421e-01  4.67941342e-01
  3.62312032e-01 -1.19332409e-01 -1.60854212e-01  1.14345648e+00  6.89990956e-02
  3.16423980e-01  7.44308252e-01  1.00000000e+00  1.00000000e+00  1.00000000e+00
  1.00000000e+00  1.00000000e+00  1.83470016e-03  1.40373012e-02  6.88426061e-02
  2.32184421e-01  4.67941342e-01  3.62312032e-01 -1.19332409e-01 -1.60854212e-01
  1.14345648e+00  6.89990956e-02  3.16423980e-01  7.44308252e-01  1.00000000e+00
  1.00000000e+00  1.00000000e+00  1.00000000e+00  1.00000000e+00  1.83470016e-03
  1.40373012e-02  6.88426061e-02  2.32184421e-01  4.67941342e-01  3.62312032e-01
 -1.19332409e-01 -1.60854212e-01  1.14345648e+00  6.89990956e-02  3.16423980e-01
  7.44308252e-01  1.00000000e+00  1.00000000e+00  1.00000000e+00  1.00000000e+00
  1.00000000e+00  1.83479944e-03  1.39949958e-02  6.85869792e-02  2.32240930e-01
  4.69069858e-01  3.60454891e-01 -1.14961023e-01 -1.69118034e-01  1.14585223e+00
  6.75800232e-02  3.23907111e-01  7.40895255e-01  1.00000000e+00  1.00000000e+00
  1.00000000e+00  1.00000000e+00  1.00000000e+00  1.83470016e-03  1.40373012e-02
  6.88426061e-02  2.32184421e-01  4.67941342e-01  3.62312032e-01 -1.19332409e-01
 -1.60854212e-01  1.14345648e+00  6.89990956e-02  3.16423980e-01  7.44308252e-01
  1.00000000e+00  1.00000000e+00  1.00000000e+00  1.00000000e+00  1.00000000e+00
  1.83470016e-03  1.40373012e-02  6.88426061e-02  2.32184421e-01  4.67941342e-01
  3.62312032e-01 -1.19332409e-01 -1.60854212e-01  1.14345648e+00  6.89990956e-02
  3.16423980e-01  7.44308252e-01  1.00000000e+00  1.00000000e+00  1.00000000e+00
  1.00000000e+00  1.00000000e+00  1.83470016e-03  1.40373012e-02  6.88426061e-02
  2.32184421e-01  4.67941342e-01  3.62312032e-01 -1.19332409e-01 -1.60854212e-01
  1.14345648e+00  6.89990956e-02  3.16423980e-01  7.44308252e-01  1.00000000e+00
  1.00000000e+00  1.00000000e+00  1.00000000e+00  1.00000000e+00  1.83470016e-03
  1.40373012e-02  6.88426061e-02  2.32184421e-01  4.67941342e-01  3.62312032e-01
 -1.19332409e-01 -1.60854212e-01  1.14345648e+00  6.89990956e-02  3.16423980e-01
  7.44308252e-01  1.00000000e+00  1.00000000e+00  1.00000000e+00  1.00000000e+00
  1.00000000e+00  1.83470016e-03  1.40373012e-02  6.88426061e-02  2.32184421e-01
  4.67941342e-01  3.62312032e-01 -1.19332409e-01 -1.60854212e-01  1.14345648e+00
  6.89990956e-02  3.16423980e-01  7.44308252e-01  1.00000000e+00  1.00000000e+00
  1.00000000e+00  1.00000000e+00  1.00000000e+00  3.34945995e-02  2.34726947e-01
  8.13757318e-01  1.00000000e+00  3.34945995e-02  2.34726947e-01  8.13757318e-01
  1.00000000e+00  3.34945995e-02  2.34726947e-01  8.13757318e-01  1.00000000e+00
  1.83470016e-03  1.40373012e-02  6.88426061e-02  2.32184421e-01  4.67941342e-01
  3.62312032e-01 -1.19332409e-01 -1.60854212e-01  1.14345648e+00  6.89990956e-02
  3.16423980e-01  7.44308252e-01  1.00000000e+00  1.00000000e+00  1.00000000e+00
  1.00000000e+00  1.00000000e+00  1.83470016e-03  1.40373012e-02  6.88426061e-02
  2.32184421e-01  4.67941342e-01  3.62312032e-01 -1.19332409e-01 -1.60854212e-01
  1.14345648e+00  6.89990956e-02  3.16423980e-01  7.44308252e-01  1.00000000e+00
  1.00000000e+00  1.00000000e+00  1.00000000e+00  1.00000000e+00  3.34945995e-02
  2.34726947e-01  8.13757318e-01  1.00000000e+00  1.83470016e-03  1.40373012e-02
  6.88426061e-02  2.32184421e-01  4.67941342e-01  3.62312032e-01 -1.19332409e-01
 -1.60854212e-01  1.14345648e+00  6.89990956e-02  3.16423980e-01  7.44308252e-01
  1.00000000e+00  1.00000000e+00  1.00000000e+00  1.00000000e+00  1.00000000e+00
  3.34945995e-02  2.34726947e-01  8.13757318e-01  1.00000000e+00  3.34945995e-02
  2.34726947e-01  8.13757318e-01  1.00000000e+00  3.34945995e-02  2.34726947e-01
  8.13757318e-01  1.00000000e+00  1.83470016e-03  1.40373012e-02  6.88426061e-02
  2.32184421e-01  4.67941342e-01  3.62312032e-01 -1.19332409e-01 -1.60854212e-01
  1.14345648e+00  6.89990956e-02  3.16423980e-01  7.44308252e-01  1.00000000e+00
  1.00000000e+00  1.00000000e+00  1.00000000e+00  1.00000000e+00  3.34945995e-02
  2.34726947e-01  8.13757318e-01  1.00000000e+00  3.34945995e-02  2.34726947e-01
  8.13757318e-01  1.00000000e+00  3.34945995e-02  2.34726947e-01  8.13757318e-01
  1.00000000e+00  3.34945995e-02  2.34726947e-01  8.13757318e-01  1.00000000e+00
  1.83109981e-03  1.39500985e-02  6.84450927e-02  2.32714275e-01  4.70192950e-01
  3.58520862e-01 -1.10777504e-01 -1.48026305e-01  1.13076704e+00  7.08742995e-02
  3.39752798e-01  7.27158595e-01  1.00000000e+00  1.00000000e+00  1.00000000e+00
  1.00000000e+00  1.00000000e+00  3.34945995e-02  2.34726947e-01  8.13757318e-01
  1.00000000e+00  3.34945995e-02  2.34726947e-01  8.13757318e-01  1.00000000e+00
  3.34945995e-02  2.34726947e-01  8.13757318e-01  1.00000000e+00  1.83470016e-03
  1.40373012e-02  6.88426061e-02  2.32184421e-01  4.67941342e-01  3.62312032e-01
 -1.19332409e-01 -1.60854212e-01  1.14345648e+00  6.89990956e-02  3.16423980e-01
  7.44308252e-01  1.00000000e+00  1.00000000e+00  1.00000000e+00  1.00000000e+00
  1.00000000e+00  1.83470016e-03  1.40373012e-02  6.88426061e-02  2.32184421e-01
  4.67941342e-01  3.62312032e-01 -1.19332409e-01 -1.60854212e-01  1.14345648e+00
  6.89990956e-02  3.16423980e-01  7.44308252e-01  1.00000000e+00  1.00000000e+00
  1.00000000e+00  1.00000000e+00  1.00000000e+00  1.83470016e-03  1.40373012e-02
  6.88426061e-02  2.32184421e-01  4.67941342e-01  3.62312032e-01 -1.19332409e-01
 -1.60854212e-01  1.14345648e+00  6.89990956e-02  3.16423980e-01  7.44308252e-01
  1.00000000e+00  1.00000000e+00  1.00000000e+00  1.00000000e+00  1.00000000e+00
  1.83470016e-03  1.40373012e-02  6.88426061e-02  2.32184421e-01  4.67941342e-01
  3.62312032e-01 -1.19332409e-01 -1.60854212e-01  1.14345648e+00  6.89990956e-02
  3.16423980e-01  7.44308252e-01  1.00000000e+00  1.00000000e+00  1.00000000e+00
  1.00000000e+00  1.00000000e+00  1.83470016e-03  1.40373012e-02  6.88426061e-02
  2.32184421e-01  4.67941342e-01  3.62312032e-01 -1.19332409e-01 -1.60854212e-01
  1.14345648e+00  6.89990956e-02  3.16423980e-01  7.44308252e-01  1.00000000e+00
  1.00000000e+00  1.00000000e+00  1.00000000e+00  1.00000000e+00  3.34945995e-02
  2.34726947e-01  8.13757318e-01  1.00000000e+00  3.34945995e-02  2.34726947e-01
  8.13757318e-01  1.00000000e+00  3.34945995e-02  2.34726947e-01  8.13757318e-01
  1.00000000e+00  3.34945995e-02  2.34726947e-01  8.13757318e-01  1.00000000e+00
  3.34945995e-02  2.34726947e-01  8.13757318e-01  1.00000000e+00
Coordinates of each shell                  R   N=         570
  2.21313318e+00 -9.90989928e-01 -2.81119180e+00  2.21313318e+00 -9.90989928e-01
 -2.81119180e+00  2.21313318e+00 -9.90989928e-01 -2.81119180e+00  2.21313318e+00
 -9.90989928e-01 -2.81119180e+00  2.21313318e+00 -9.90989928e-01 -2.81119180e+00
  2.21313318e+00 -9.90989928e-01 -2.81119180e+00  2.21313318e+00 -9.90989928e-01
 -2.81119180e+00  2.21313318e+00 -9.90989928e-01 -2.81119180e+00 -4.36108371e+00
 -1.20046239e+00 -3.54576833e+00 -4.36108371e+00 -1.20046239e+00 -3.54576833e+00
 -4.36108371e+00 -1.20046239e+00 -3.54576833e+00 -4.36108371e+00 -1.20046239e+00
 -3.54576833e+00 -4.36108371e+00 -1.20046239e+00 -3.54576833e+00 -4.36108371e+00
 -1.20046239e+00 -3.54576833e+00 -4.36108371e+00 -1.20046239e+00 -3.54576833e+00
 -4.36108371e+00 -1.20046239e+00 -3.54576833e+00 -3.25730640e+00  1.01526765e+00
 -2.01185005e+00 -3.25730640e+00  1.01526765e+00 -2.01185005e+00 -3.25730640e+00
  1.01526765e+00 -2.01185005e+00 -3.25730640e+00  1.01526765e+00 -2.01185005e+00
 -3.25730640e+00  1.01526765e+00 -2.01185005e+00 -3.25730640e+00  1.01526765e+00
 -2.01185005e+00 -3.25730640e+00  1.01526765e+00 -2.01185005e+00 -3.25730640e+00
  1.01526765e+00 -2.01185005e+00 -2.34781359e+00  1.87271145e-01  4.87479201e-01
 -2.34781359e+00  1.87271145e-01  4.87479201e-01 -2.34781359e+00  1.87271145e-01
  4.87479201e-01 -2.34781359e+00  1.87271145e-01  4.87479201e-01 -2.34781359e+00
  1.87271145e-01  4.87479201e-01 -2.34781359e+00  1.87271145e-01  4.87479201e-01
 -2.34781359e+00  1.87271145e-01  4.87479201e-01 -2.34781359e+00  1.87271145e-01
  4.87479201e-01  1.39180646e+00  1.27351657e+00 -3.92676278e+00  1.39180646e+00
  1.27351657e+00 -3.92676278e+00  1.39180646e+00  1.27351657e+00 -3.92676278e+00
  1.39180646e+00  1.27351657e+00 -3.92676278e+00  1.39180646e+00  1.27351657e+00
 -3.92676278e+00  1.39180646e+00  1.27351657e+00 -3.92676278e+00  1.39180646e+00
  1.27351657e+00 -3.92676278e+00  1.39180646e+00  1.27351657e+00 -3.92676278e+00
  3.07911557e+00  2.58881042e+00 -5.51201667e+00  3.07911557e+00  2.58881042e+00
 -5.51201667e+00  3.07911557e+00  2.58881042e+00 -5.51201667e+00  3.07911557e+00
  2.58881042e+00 -5.51201667e+00  3.07911557e+00  2.58881042e+00 -5.51201667e+00
  3.07911557e+00  2.58881042e+00 -5.51201667e+00  3.07911557e+00  2.58881042e+00
 -5.51201667e+00  3.07911557e+00  2.58881042e+00 -5.51201667e+00  5.49404629e+00
  1.66474471e+00 -5.96540204e+00  5.49404629e+00  1.66474471e+00 -5.96540204e+00
  5.49404629e+00  1.66474471e+00 -5.96540204e+00  5.49404629e+00  1.66474471e+00
 -5.96540204e+00  5.49404629e+00  1.66474471e+00 -5.96540204e+00  5.49404629e+00
  1.66474471e+00 -5.96540204e+00  5.49404629e+00  1.66474471e+00 -5.96540204e+00
  5.49404629e+00  1.66474471e+00 -5.96540204e+00  6.32426670e+00 -6.05733195e-01
 -4.85825145e+00  6.32426670e+00 -6.05733195e-01 -4.85825145e+00  6.32426670e+00
 -6.05733195e-01 -4.85825145e+00  6.32426670e+00 -6.05733195e-01 -4.85825145e+00
  6.32426670e+00 -6.05733195e-01 -4.85825145e+00  6.32426670e+00 -6.05733195e-01
 -4.85825145e+00  6.32426670e+00 -6.05733195e-01 -4.85825145e+00  6.32426670e+00
 -6.05733195e-01 -4.85825145e+00  4.64415993e+00 -1.90578612e+00 -3.27980948e+00
  4.64415993e+00 -1.90578612e+00 -3.27980948e+00  4.64415993e+00 -1.90578612e+00
 -3.27980948e+00  4.64415993e+00 -1.90578612e+00 -3.27980948e+00  4.64415993e+00
 -1.90578612e+00 -3.27980948e+00  4.64415993e+00 -1.90578612e+00 -3.27980948e+00
  4.64415993e+00 -1.90578612e+00 -3.27980948e+00  4.64415993e+00 -1.90578612e+00
 -3.27980948e+00  5.24463679e+00 -3.66052914e+00 -2.39269229e+00  5.24463679e+00
 -3.66052914e+00 -2.39269229e+00  2.44610486e+00  4.33786187e+00 -6.37675539e+00
  2.44610486e+00  4.33786187e+00 -6.37675539e+00  6.76450964e+00  2.71170483e+00
 -7.19834650e+00  6.76450964e+00  2.71170483e+00 -7.19834650e+00  8.95429023e+00
 -1.59184489e+00 -5.36290872e+00  8.95429023e+00 -1.59184489e+00 -5.36290872e+00
  8.95429023e+00 -1.59184489e+00 -5.36290872e+00  8.95429023e+00 -1.59184489e+00
 -5.36290872e+00  8.95429023e+00 -1.59184489e+00 -5.36290872e+00  8.95429023e+00
 -1.59184489e+00 -5.36290872e+00  8.95429023e+00 -1.59184489e+00 -5.36290872e+00
  8.95429023e+00 -1.59184489e+00 -5.36290872e+00 -1.19197236e+00  2.36813700e+00
 -3.56321411e+00 -1.19197236e+00  2.36813700e+00 -3.56321411e+00 -1.19197236e+00
  2.36813700e+00 -3.56321411e+00 -1.19197236e+00  2.36813700e+00 -3.56321411e+00
 -1.19197236e+00  2.36813700e+00 -3.56321411e+00 -1.19197236e+00  2.36813700e+00