Generated by Psi4
     FORCE                           RHF                       TESTBAS
Number of atoms                            I               29
Charge                                     I                0
Multiplicity                               I                1
Number of electrons                        I              158
Number of alpha electrons                  I               79
Number of beta electrons                   I               79
Number of basis functions                  I              397
Number of independent functions            I              397
Atomic numbers                             I   N=          29
           6           7           6           7           6           6
           6           1           1           8           6           6
           6           6           1           1           1          35
           6           7           6           6           6           6
           1           1           1           1           1
Nuclear charges                            R   N=          29
  6.00000000e+00  7.00000000e+00  6.00000000e+00  7.00000000e+00  6.00000000e+00
  6.00000000e+00  6.00000000e+00  1.00000000e+00  1.00000000e+00  8.00000000e+00
  6.00000000e+00  6.00000000e+00  6.00000000e+00  6.00000000e+00  1.00000000e+00
  1.00000000e+00  1.00000000e+00  3.50000000e+01  6.00000000e+00  7.00000000e+00
  6.00000000e+00  6.00000000e+00  6.00000000e+00  6.00000000e+00  1.00000000e+00
  1.00000000e+00  1.00000000e+00  1.00000000e+00  1.00000000e+00
Current cartesian coordinates              R   N=          87
  1.55505403e-01  3.79793597e+00 -2.75356039e-01  2.05839951e+00  5.51044677e+00
 -9.80315512e-01  3.43769264e+00  5.54700649e+00 -3.21467630e+00  3.96982162e+00
  9.35969199e-01 -3.64339416e+00  3.09032780e+00  3.22658201e+00 -4.88645538e+00
  2.69516618e+00  1.65989816e-02 -1.79991568e+00  3.90667609e-01  1.16269905e+00
 -6.56930536e-01  4.20045224e+00  3.53235867e+00 -6.59510976e+00  1.07765434e+00
  3.08271400e+00 -5.40821790e+00  4.79144903e+00  7.33620127e+00 -3.73794461e+00
 -1.99527158e+00  4.75151693e+00  9.60990087e-01 -3.91906597e+00  3.16003828e+00
  1.77392070e+00 -3.70974702e+00  5.63190624e-01  1.33436332e+00 -1.58508321e+00
 -4.25420435e-01  1.57313884e-01 -2.16044503e+00  6.77667638e+00  1.26742155e+00
 -5.56926067e+00  3.93084781e+00  2.71496880e+00 -1.42486127e+00 -2.44696019e+00
 -1.39212374e-01 -6.37273630e+00 -1.64962350e+00  2.39005251e+00  3.65152827e+00
 -2.41654964e+00 -6.78848370e-01  4.27341110e+00 -4.26111104e+00 -2.30670116e+00
  5.21717325e+00 -6.40422441e+00 -1.35807758e+00  5.60623479e+00 -6.82301908e+00
  1.22174711e+00  4.94597263e+00 -4.90658980e+00  2.90592370e+00  3.93205284e+00
 -2.67161655e+00  1.94496975e+00  5.68256487e+00 -7.86178155e+00 -2.73330818e+00
  6.39393206e+00 -8.60135669e+00  1.87817279e+00  5.21359139e+00 -5.14247487e+00
  4.92863161e+00  2.12042836e+00  7.17980105e+00 -3.69719252e-02  3.39241803e+00
 -1.13956411e+00  3.19942348e+00
Integer atomic weights                     I   N=          29
          12          14          12          14          12          12
          12           1           1          15          12          12
          12          12           1           1           1          78
          12          14          12          12          12          12
           1           1           1           1           1
Real atomic weights                        R   N=          29
  1.20000000e+01  1.40030740e+01  1.20000000e+01  1.40030740e+01  1.20000000e+01
  1.20000000e+01  1.20000000e+01  1.00782503e+00  1.00782503e+00  1.59949146e+01
  1.20000000e+01  1.20000000e+01  1.20000000e+01  1.20000000e+01  1.00782503e+00
  1.00782503e+00  1.00782503e+00  7.89183376e+01  1.20000000e+01  1.40030740e+01
  1.20000000e+01  1.20000000e+01  1.20000000e+01  1.20000000e+01  1.00782503e+00
  1.00782503e+00  1.00782503e+00  1.00782503e+00  1.00782503e+00
Number of primitive shells                 I              389
Number of contracted shells                I              176
Pure/Cartesian d shells                    I                1
Pure/Cartesian f shells                    I                1
Highest angular momentum                   I                2
Largest degree of contraction              I                6
Shell types                                I   N=         176
           0           0           1           0           1           2
           0           1           0           0           1           0
           1           2           0           1           0           0
           1           0           1           2           0           1
           0           0           1           0           1           2
           0           1           0           0           1           0
           1           2           0           1           0           0
           1           0           1           2           0           1
           0           0           1           0           1           2
           0           1           0           0           0           0
           0           0           1           0           1           2
           0           1           0           0           1           0
           1           2           0           1           0           0
           1           0           1           2           0           1
           0           0           1           0           1           2
           0           1           0           0           1           0
           1           2           0           1           0           0
           0           0           0           0           0           0
           1           0           1           0           1           0
           1           2           2           2           0           0
           1           0           1           2           0           1
           0           0           1           0           1           2
           0           1           0           0           1           0
           1           2           0           1           0           0
           1           0           1           2           0           1
           0           0           1           0           1           2
           0           1           0           0           1           0
           1           2           0           1           0           0
           0           0           0           0           0           0
           0           0
Number of primitives per shell             I   N=         176
           6           3           3           1           1           1
           1           1           6           3           3           1
           1           1           1           1           6           3
           3           1           1           1           1           1
           6           3           3           1           1           1
           1           1           6           3           3           1
           1           1           1           1           6           3
           3           1           1           1           1           1
           6           3           3           1           1           1
           1           1           3           1           3           1
           6           3           3           1           1           1
           1           1           6           3           3           1
           1           1           1           1           6           3
           3           1           1           1           1           1
           6           3           3           1           1           1
           1           1           6           3           3           1
           1           1           1           1           3           1
           3           1           3           1           6           6
           6           6           6           3           3           1
           1           3           1           1           6           3
           3           1           1           1           1           1
           6           3           3           1           1           1
           1           1           6           3           3           1
           1           1           1           1           6           3
           3           1           1           1           1           1
           6           3           3           1           1           1
           1           1           6           3           3           1
           1           1           1           1           3           1
           3           1           3           1           3           1
           3           1
Shell to atom map                          I   N=         176
           1           1           1           1           1           1
           1           1           2           2           2           2
           2           2           2           2           3           3
           3           3           3           3           3           3
           4           4           4           4           4           4
           4           4           5           5           5           5
           5           5           5           5           6           6
           6           6           6           6           6           6
           7           7           7           7           7           7
           7           7           8           8           9           9
          10          10          10          10          10          10
          10          10          11          11          11          11
          11          11          11          11          12          12
          12          12          12          12          12          12
          13          13          13          13          13          13
          13          13          14          14          14          14
          14          14          14          14          15          15
          16          16          17          17          18          18
          18          18          18          18          18          18
          18          18          18          18          19          19
          19          19          19          19          19          19
          20          20          20          20          20          20
          20          20          21          21          21          21
          21          21          21          21          22          22
          22          22          22          22          22          22
          23          23          23          23          23          23
          23          23          24          24          24          24
          24          24          24          24          25          25
          26          26          27          27          28          28
          29          29
Primitive exponents                        R   N=         389
  3.04752490e+03  4.57369510e+02  1.03948690e+02  2.92101550e+01  9.28666300e+00
  3.16392700e+00  7.86827240e+00  1.88128850e+00  5.44249300e-01  7.86827240e+00
  1.88128850e+00  5.44249300e-01  1.68714400e-01  1.68714400e-01  8.00000000e-01
  4.38000000e-02  4.38000000e-02  4.17351100e+03  6.27457900e+02  1.42902100e+02
  4.02343300e+01  1.28202100e+01  4.39043700e+00  1.16263580e+01  2.71628000e+00
  7.72218000e-01  1.16263580e+01  2.71628000e+00  7.72218000e-01  2.12031300e-01
  2.12031300e-01  8.00000000e-01  6.39000000e-02  6.39000000e-02  3.04752490e+03
  4.57369510e+02  1.03948690e+02  2.92101550e+01  9.28666300e+00  3.16392700e+00
  7.86827240e+00  1.88128850e+00  5.44249300e-01  7.86827240e+00  1.88128850e+00
  5.44249300e-01  1.68714400e-01  1.68714400e-01  8.00000000e-01  4.38000000e-02
  4.38000000e-02  4.17351100e+03  6.27457900e+02  1.42902100e+02  4.02343300e+01
  1.28202100e+01  4.39043700e+00  1.16263580e+01  2.71628000e+00  7.72218000e-01
  1.16263580e+01  2.71628000e+00  7.72218000e-01  2.12031300e-01  2.12031300e-01
  8.00000000e-01  6.39000000e-02  6.39000000e-02  3.04752490e+03  4.57369510e+02
  1.03948690e+02  2.92101550e+01  9.28666300e+00  3.16392700e+00  7.86827240e+00
  1.88128850e+00  5.44249300e-01  7.86827240e+00  1.88128850e+00  5.44249300e-01
  1.68714400e-01  1.68714400e-01  8.00000000e-01  4.38000000e-02  4.38000000e-02
  3.04752490e+03  4.57369510e+02  1.03948690e+02  2.92101550e+01  9.28666300e+00
  3.16392700e+00  7.86827240e+00  1.88128850e+00  5.44249300e-01  7.86827240e+00
  1.88128850e+00  5.44249300e-01  1.68714400e-01  1.68714400e-01  8.00000000e-01
  4.38000000e-02  4.38000000e-02  3.04752490e+03  4.57369510e+02  1.03948690e+02
  2.92101550e+01  9.28666300e+00  3.16392700e+00  7.86827240e+00  1.88128850e+00
  5.44249300e-01  7.86827240e+00  1.88128850e+00  5.44249300e-01  1.68714400e-01
  1.68714400e-01  8.00000000e-01  4.38000000e-02  4.38000000e-02  1.87311370e+01
  2.82539370e+00  6.40121700e-01  1.61277800e-01  1.87311370e+01  2.82539370e+00
  6.40121700e-01  1.61277800e-01  5.48467170e+03  8.25234950e+02  1.88046960e+02
  5.29645000e+01  1.68975700e+01  5.79963530e+00  1.55396160e+01  3.59993360e+00
  1.01376180e+00  1.55396160e+01  3.59993360e+00  1.01376180e+00  2.70005800e-01
  2.70005800e-01  8.00000000e-01  8.45000000e-02  8.45000000e-02  3.04752490e+03
  4.57369510e+02  1.03948690e+02  2.92101550e+01  9.28666300e+00  3.16392700e+00
  7.86827240e+00  1.88128850e+00  5.44249300e-01  7.86827240e+00  1.88128850e+00
  5.44249300e-01  1.68714400e-01  1.68714400e-01  8.00000000e-01  4.38000000e-02
  4.38000000e-02  3.04752490e+03  4.57369510e+02  1.03948690e+02  2.92101550e+01
  9.28666300e+00  3.16392700e+00  7.86827240e+00  1.88128850e+00  5.44249300e-01
  7.86827240e+00  1.88128850e+00  5.44249300e-01  1.68714400e-01  1.68714400e-01
  8.00000000e-01  4.38000000e-02  4.38000000e-02  3.04752490e+03  4.57369510e+02
  1.03948690e+02  2.92101550e+01  9.28666300e+00  3.16392700e+00  7.86827240e+00
  1.88128850e+00  5.44249300e-01  7.86827240e+00  1.88128850e+00  5.44249300e-01
  1.68714400e-01  1.68714400e-01  8.00000000e-01  4.38000000e-02  4.38000000e-02
  3.04752490e+03  4.57369510e+02  1.03948690e+02  2.92101550e+01  9.28666300e+00
  3.16392700e+00  7.86827240e+00  1.88128850e+00  5.44249300e-01  7.86827240e+00
  1.88128850e+00  5.44249300e-01  1.68714400e-01  1.68714400e-01  8.00000000e-01
  4.38000000e-02  4.38000000e-02  1.87311370e+01  2.82539370e+00  6.40121700e-01
  1.61277800e-01  1.87311370e+01  2.82539370e+00  6.40121700e-01  1.61277800e-01
  1.87311370e+01  2.82539370e+00  6.40121700e-01  1.61277800e-01  1.13718200e+05
  1.70744400e+04  3.88957600e+03  1.09709600e+03  3.52062400e+02  1.20700200e+02
  2.47113800e+03  5.89383800e+02  1.91873800e+02  7.29533900e+01  3.00583900e+01
  1.25292700e+01  2.47113800e+03  5.89383800e+02  1.91873800e+02  7.29533900e+01
  3.00583900e+01  1.25292700e+01  1.09641100e+02  3.85894800e+01  1.63781800e+01
  7.22183600e+00  3.26369700e+00  1.46549900e+00  1.09641100e+02  3.85894800e+01
  1.63781800e+01  7.22183600e+00  3.26369700e+00  1.46549900e+00  2.10365100e+00
  7.54705000e-01  3.00514000e-01  2.10365100e+00  7.54705000e-01  3.00514000e-01
  1.09071000e-01  1.09071000e-01  6.22551400e+01  1.73128400e+01  5.60791500e+00
  1.74648600e+00  4.36600000e-01  3.04752490e+03  4.57369510e+02  1.03948690e+02
  2.92101550e+01  9.28666300e+00  3.16392700e+00  7.86827240e+00  1.88128850e+00
  5.44249300e-01  7.86827240e+00  1.88128850e+00  5.44249300e-01  1.68714400e-01
  1.68714400e-01  8.00000000e-01  4.38000000e-02  4.38000000e-02  4.17351100e+03
  6.27457900e+02  1.42902100e+02  4.02343300e+01  1.28202100e+01  4.39043700e+00
  1.16263580e+01  2.71628000e+00  7.72218000e-01  1.16263580e+01  2.71628000e+00
  7.72218000e-01  2.12031300e-01  2.12031300e-01  8.00000000e-01  6.39000000e-02
  6.39000000e-02  3.04752490e+03  4.57369510e+02  1.03948690e+02  2.92101550e+01
  9.28666300e+00  3.16392700e+00  7.86827240e+00  1.88128850e+00  5.44249300e-01
  7.86827240e+00  1.88128850e+00  5.44249300e-01  1.68714400e-01  1.68714400e-01
  8.00000000e-01  4.38000000e-02  4.38000000e-02  3.04752490e+03  4.57369510e+02
  1.03948690e+02  2.92101550e+01  9.28666300e+00  3.16392700e+00  7.86827240e+00
  1.88128850e+00  5.44249300e-01  7.86827240e+00  1.88128850e+00  5.44249300e-01
  1.68714400e-01  1.68714400e-01  8.00000000e-01  4.38000000e-02  4.38000000e-02
  3.04752490e+03  4.57369510e+02  1.03948690e+02  2.92101550e+01  9.28666300e+00
  3.16392700e+00  7.86827240e+00  1.88128850e+00  5.44249300e-01  7.86827240e+00
  1.88128850e+00  5.44249300e-01  1.68714400e-01  1.68714400e-01  8.00000000e-01
  4.38000000e-02  4.38000000e-02  3.04752490e+03  4.57369510e+02  1.03948690e+02
  2.92101550e+01  9.28666300e+00  3.16392700e+00  7.86827240e+00  1.88128850e+00
  5.44249300e-01  7.86827240e+00  1.88128850e+00  5.44249300e-01  1.68714400e-01
  1.68714400e-01  8.00000000e-01  4.38000000e-02  4.38000000e-02  1.87311370e+01
  2.82539370e+00  6.40121700e-01  1.61277800e-01  1.87311370e+01  2.82539370e+00
  6.40121700e-01  1.61277800e-01  1.87311370e+01  2.82539370e+00  6.40121700e-01
  1.61277800e-01  1.87311370e+01  2.82539370e+00  6.40121700e-01  1.61277800e-01
  1.87311370e+01  2.82539370e+00  6.40121700e-01  1.61277800e-01
Contraction coefficients                   R   N=         389
  1.83470016e-03  1.40373012e-02  6.88426061e-02  2.32184421e-01  4.67941342e-01
  3.62312032e-01 -1.19332409e-01 -1.60854212e-01  1.14345648e+00  6.89990956e-02
  3.16423980e-01  7.44308252e-01  1.00000000e+00  1.00000000e+00  1.00000000e+00
  1.00000000e+00  1.00000000e+00  1.83479944e-03  1.39949958e-02  6.85869792e-02
  2.32240930e-01  4.69069858e-01  3.60454891e-01 -1.14961023e-01 -1.69118034e-01
  1.14585223e+00  6.75800232e-02  3.23907111e-01  7.40895255e-01  1.00000000e+00
  1.00000000e+00  1.00000000e+00  1.00000000e+00  1.00000000e+00  1.83470016e-03
  1.40373012e-02  6.88426061e-02  2.32184421e-01  4.67941342e-01  3.62312032e-01
 -1.19332409e-01 -1.60854212e-01  1.14345648e+00  6.89990956e-02  3.16423980e-01
  7.44308252e-01  1.00000000e+00  1.00000000e+00  1.00000000e+00  1.00000000e+00
  1.00000000e+00  1.83479944e-03  1.39949958e-02  6.85869792e-02  2.32240930e-01
  4.69069858e-01  3.60454891e-01 -1.14961023e-01 -1.69118034e-01  1.14585223e+00
  6.75800232e-02  3.23907111e-01  7.40895255e-01  1.00000000e+00  1.00000000e+00
  1.00000000e+00  1.00000000e+00  1.00000000e+00  1.83470016e-03  1.40373012e-02
  6.88426061e-02  2.32184421e-01  4.67941342e-01  3.62312032e-01 -1.19332409e-01
 -1.60854212e-01  1.14345648e+00  6.89990956e-02  3.16423980e-01  7.44308252e-01
  1.00000000e+00  1.00000000e+00  1.00000000e+00  1.00000000e+00  1.00000000e+00
  1.83470016e-03  1.40373012e-02  6.88426061e-02  2.32184421e-01  4.67941342e-01
  3.62312032e-01 -1.19332409e-01 -1.60854212e-01  1.14345648e+00  6.89990956e-02
  3.16423980e-01  7.44308252e-01  1.00000000e+00  1.00000000e+00  1.00000000e+00
  1.00000000e+00  1.00000000e+00  1.83470016e-03  1.40373012e-02  6.88426061e-02
  2.32184421e-01  4.67941342e-01  3.62312032e-01 -1.19332409e-01 -1.60854212e-01
  1.14345648e+00  6.89990956e-02  3.16423980e-01  7.44308252e-01  1.00000000e+00
  1.00000000e+00  1.00000000e+00  1.00000000e+00  1.00000000e+00  3.34945995e-02
  2.34726947e-01  8.13757318e-01  1.00000000e+00  3.34945995e-02  2.34726947e-01
  8.13757318e-01  1.00000000e+00  1.83109981e-03  1.39500985e-02  6.84450927e-02
  2.32714275e-01  4.70192950e-01  3.58520862e-01 -1.10777504e-01 -1.48026305e-01
  1.13076704e+00  7.08742995e-02  3.39752798e-01  7.27158595e-01  1.00000000e+00
  1.00000000e+00  1.00000000e+00  1.00000000e+00  1.00000000e+00  1.83470016e-03
  1.40373012e-02  6.88426061e-02  2.32184421e-01  4.67941342e-01  3.62312032e-01
 -1.19332409e-01 -1.60854212e-01  1.14345648e+00  6.89990956e-02  3.16423980e-01
  7.44308252e-01  1.00000000e+00  1.00000000e+00  1.00000000e+00  1.00000000e+00
  1.00000000e+00  1.83470016e-03  1.40373012e-02  6.88426061e-02  2.32184421e-01
  4.67941342e-01  3.62312032e-01 -1.19332409e-01 -1.60854212e-01  1.14345648e+00
  6.89990956e-02  3.16423980e-01  7.44308252e-01  1.00000000e+00  1.00000000e+00
  1.00000000e+00  1.00000000e+00  1.00000000e+00  1.83470016e-03  1.40373012e-02
  6.88426061e-02  2.32184421e-01  4.67941342e-01  3.62312032e-01 -1.19332409e-01
 -1.60854212e-01  1.14345648e+00  6.89990956e-02  3.16423980e-01  7.44308252e-01
  1.00000000e+00  1.00000000e+00  1.00000000e+00  1.00000000e+00  1.00000000e+00
  1.83470016e-03  1.40373012e-02  6.88426061e-02  2.32184421e-01  4.67941342e-01
  3.62312032e-01 -1.19332409e-01 -1.60854212e-01  1.14345648e+00  6.89990956e-02
  3.16423980e-01  7.44308252e-01  1.00000000e+00  1.00000000e+00  1.00000000e+00
  1.00000000e+00  1.00000000e+00  3.34945995e-02  2.34726947e-01  8.13757318e-01
  1.00000000e+00  3.34945995e-02  2.34726947e-01  8.13757318e-01  1.00000000e+00
  3.34945995e-02  2.34726947e-01  8.13757318e-01  1.00000000e+00  1.71769602e-03
  1.31674402e-02  6.50455308e-02  2.26950503e-01  4.76835706e-01  3.58367704e-01
  2.24368693e-03  2.99485291e-02  1.25600896e-01 -9.83278571e-04 -6.01314082e-01
 -4.91398286e-01  3.79018184e-03  2.99597888e-02  1.31822795e-01  3.43270786e-01
  4.64234481e-01  2.07938691e-01 -5.97568320e-03  5.54212219e-02  2.68120009e-01
 -1.54360605e-01 -7.20630625e-01 -3.31643711e-01 -6.90748264e-03 -3.04143184e-02
  4.60272476e-02  3.65068881e-01  4.94923174e-01  2.09039389e-01  3.02902925e-01
 -2.15265918e-01 -9.63394181e-01 -2.82671388e-02  3.50306486e-01  7.18244570e-01
  1.00000000e+00  1.00000000e+00  7.70422846e-02  3.70738374e-01  7.09762750e-01
  1.00000000e+00  1.00000000e+00  1.83470016e-03  1.40373012e-02  6.88426061e-02
  2.32184421e-01  4.67941342e-01  3.62312032e-01 -1.19332409e-01 -1.60854212e-01
  1.14345648e+00  6.89990956e-02  3.16423980e-01  7.44308252e-01  1.00000000e+00
  1.00000000e+00  1.00000000e+00  1.00000000e+00  1.00000000e+00  1.83479944e-03
  1.39949958e-02  6.85869792e-02  2.32240930e-01  4.69069858e-01  3.60454891e-01
 -1.14961023e-01 -1.69118034e-01  1.14585223e+00  6.75800232e-02  3.23907111e-01
  7.40895255e-01  1.00000000e+00  1.00000000e+00  1.00000000e+00  1.00000000e+00
  1.00000000e+00  1.83470016e-03  1.40373012e-02  6.88426061e-02  2.32184421e-01
  4.67941342e-01  3.62312032e-01 -1.19332409e-01 -1.60854212e-01  1.14345648e+00
  6.89990956e-02  3.16423980e-01  7.44308252e-01  1.00000000e+00  1.00000000e+00
  1.00000000e+00  1.00000000e+00  1.00000000e+00  1.83470016e-03  1.40373012e-02
  6.88426061e-02  2.32184421e-01  4.67941342e-01  3.62312032e-01 -1.19332409e-01
 -1.60854212e-01  1.14345648e+00  6.89990956e-02  3.16423980e-01  7.44308252e-01
  1.00000000e+00  1.00000000e+00  1.00000000e+00  1.00000000e+00  1.00000000e+00
  1.83470016e-03  1.40373012e-02  6.88426061e-02  2.32184421e-01  4.67941342e-01
  3.62312032e-01 -1.19332409e-01 -1.60854212e-01  1.14345648e+00  6.89990956e-02
  3.16423980e-01  7.44308252e-01  1.00000000e+00  1.00000000e+00  1.00000000e+00
  1.00000000e+00  1.00000000e+00  1.83470016e-03  1.40373012e-02  6.88426061e-02
  2.32184421e-01  4.67941342e-01  3.62312032e-01 -1.19332409e-01 -1.60854212e-01
  1.14345648e+00  6.89990956e-02  3.16423980e-01  7.44308252e-01  1.00000000e+00
  1.00000000e+00  1.00000000e+00  1.00000000e+00  1.00000000e+00  3.34945995e-02
  2.34726947e-01  8.13757318e-01  1.00000000e+00  3.34945995e-02  2.34726947e-01
  8.13757318e-01  1.00000000e+00  3.34945995e-02  2.34726947e-01  8.13757318e-01
  1.00000000e+00  3.34945995e-02  2.34726947e-01  8.13757318e-01  1.00000000e+00
  3.34945995e-02  2.34726947e-01  8.13757318e-01  1.00000000e+00
Coordinates of each shell                  R   N=         528
  1.55505403e-01  3.79793597e+00 -2.75356039e-01  1.55505403e-01  3.79793597e+00
 -2.75356039e-01  1.55505403e-01  3.79793597e+00 -2.75356039e-01  1.55505403e-01
  3.79793597e+00 -2.75356039e-01  1.55505403e-01  3.79793597e+00 -2.75356039e-01
  1.55505403e-01  3.79793597e+00 -2.75356039e-01  1.55505403e-01  3.79793597e+00
 -2.75356039e-01  1.55505403e-01  3.79793597e+00 -2.75356039e-01  2.05839951e+00
  5.51044677e+00 -9.80315512e-01  2.05839951e+00  5.51044677e+00 -9.80315512e-01
  2.05839951e+00  5.51044677e+00 -9.80315512e-01  2.05839951e+00  5.51044677e+00
 -9.80315512e-01  2.05839951e+00  5.51044677e+00 -9.80315512e-01  2.05839951e+00
  5.51044677e+00 -9.80315512e-01  2.05839951e+00  5.51044677e+00 -9.80315512e-01
  2.05839951e+00  5.51044677e+00 -9.80315512e-01  3.43769264e+00  5.54700649e+00
 -3.21467630e+00  3.43769264e+00  5.54700649e+00 -3.21467630e+00  3.43769264e+00
  5.54700649e+00 -3.21467630e+00  3.43769264e+00  5.54700649e+00 -3.21467630e+00
  3.43769264e+00  5.54700649e+00 -3.21467630e+00  3.43769264e+00  5.54700649e+00
 -3.21467630e+00  3.43769264e+00  5.54700649e+00 -3.21467630e+00  3.43769264e+00
  5.54700649e+00 -3.21467630e+00  3.96982162e+00  9.35969199e-01 -3.64339416e+00
  3.96982162e+00  9.35969199e-01 -3.64339416e+00  3.96982162e+00  9.35969199e-01
 -3.64339416e+00  3.96982162e+00  9.35969199e-01 -3.64339416e+00  3.96982162e+00
  9.35969199e-01 -3.64339416e+00  3.96982162e+00  9.35969199e-01 -3.64339416e+00
  3.96982162e+00  9.35969199e-01 -3.64339416e+00  3.96982162e+00  9.35969199e-01
 -3.64339416e+00  3.09032780e+00  3.22658201e+00 -4.88645538e+00  3.09032780e+00
  3.22658201e+00 -4.88645538e+00  3.09032780e+00  3.22658201e+00 -4.88645538e+00
  3.09032780e+00  3.22658201e+00 -4.88645538e+00  3.09032780e+00  3.22658201e+00
 -4.88645538e+00  3.09032780e+00  3.22658201e+00 -4.88645538e+00  3.09032780e+00
  3.22658201e+00 -4.88645538e+00  3.09032780e+00  3.22658201e+00 -4.88645538e+00
  2.69516618e+00  1.65989816e-02 -1.79991568e+00  2.69516618e+00  1.65989816e-02
 -1.79991568e+00  2.69516618e+00  1.65989816e-02 -1.79991568e+00  2.69516618e+00
  1.65989816e-02 -1.79991568e+00  2.69516618e+00  1.65989816e-02 -1.79991568e+00
  2.69516618e+00  1.65989816e-02 -1.79991568e+00  2.69516618e+00  1.65989816e-02
 -1.79991568e+00  2.69516618e+00  1.65989816e-02 -1.79991568e+00  3.90667609e-01
  1.16269905e+00 -6.56930536e-01  3.90667609e-01  1.16269905e+00 -6.56930536e-01
  3.90667609e-01  1.16269905e+00 -6.56930536e-01  3.90667609e-01  1.16269905e+00
 -6.56930536e-01  3.90667609e-01  1.16269905e+00 -6.56930536e-01  3.90667609e-01
  1.16269905e+00 -6.56930536e-01  3.90667609e-01  1.16269905e+00 -6.56930536e-01
  3.90667609e-01  1.16269905e+00 -6.56930536e-01  4.20045224e+00  3.53235867e+00
 -6.59510976e+00  4.20045224e+00  3.53235867e+00 -6.59510976e+00  1.07765434e+00
  3.08271400e+00 -5.40821790e+00  1.07765434e+00  3.08271400e+00 -5.40821790e+00
  4.79144903e+00  7.33620127e+00 -3.73794461e+00  4.79144903e+00  7.33620127e+00
 -3.73794461e+00  4.79144903e+00  7.33620127e+00 -3.73794461e+00  4.79144903e+00
  7.33620127e+00 -3.73794461e+00  4.79144903e+00  7.33620127e+00 -3.73794461e+00
  4.79144903e+00  7.33620127e+00 -3.73794461e+00  4.79144903e+00  7.33620127e+00
 -3.73794461e+00  4.79144903e+00  7.33620127e+00 -3.73794461e+00 -1.99527158e+00
  4.75151693e+00  9.60990087e-01 -1.99527158e+00  4.75151693e+00  9.60990087e-01
 -1.99527158e+00  4.75151693e+00  9.60990087e-01 -1.99527158e+00  4.75151693e+00
  9.60990087e-01 -1.99527158e+00  4.75151693e+00  9.60990087e-01 -1.99527158e+00
  4.75151693e+00  9.60990087e-01 -1.99527158e+00  4.75151693e+00  9.60990087e-01
 -1.99527158e+00  4.75151693e+00  9.60990087e-01 -3.91906597e+00  3.16003828e+00
  1.77392070e+00 -3.91906597e+00  3.16003828e+00  1.77392070e+00 -3.91906597e+00
  3.16003828e+00  1.77392070e+00 -3.91906597e+00  3.16003828e+00  1.77392070e+00
 -3.91906597e+00  3.16003828e+00  1.77392070e+00 -3.91906597e+00  3.16003828e+00
  1.77392070e+00 -3.91906597e+00  3.16003828e+00  1.77392070e+00 -3.91906597e+00
  3.16003828e+00  1.77392070e+00 -3.70974702e+00  5.63190624e-01  1.33436332e+00
 -3.70974702e+00  5.63190624e-01  1.33436332e+00 -3.70974702e+00  5.63190624e-01
  1.33436332e+00 -3.70974702e+00  5.63190624e-01  1.33436332e+00 -3.70974702e+00
  5.63190624e-01  1.33436332e+00 -3.70974702e+00  5.63190624e-01  1.33436332e+00
 -3.70974702e+00  5.63190624e-01  1.33436332e+00 -3.70974702e+00  5.63190624e-01
  1.33436332e+00 -1.58508321e+00 -4.25420435e-01  1.57313884e-01 -1.58508321e+00
 -4.25420435e-01  1.57313884e-01 -1.58508321e+00 -4.25420435e-01  1.57313884e-01
 -1.58508321e+00 -4.25420435e-01  1.57313884e-01 -1.58508321e+00 -4.25420435e-01
  1.57313884e-01 -1.58508321e+00 -4.25420435e-01  1.57313884e-01 -1.58508321e+00
 -4.25420435e-01  1.57313884e-01 -1.58508321e+00 -4.25420435e-01  1.57313884e-01
 -2.16044503e+00  6.77667638e+00  1.26742155e+00 -2.16044503e+00  6.77667638e+00
  1.26742155e+00 -5.56926067e+00  3.93084781e+00  2.71496880e+00 -5.56926067e+00
  3.93084781e+00  2.71496880e+00 -1.42486127e+00 -2.44696019e+00 -1.39212374e-01
 -1.42486127e+00 -2.44696019e+00 -1.39212374e-01 -6.37273630e+00 -1.64962350e+00
  2.39005251e+00 -6.37273630e+00 -1.64962350e+00  2.39005251e+00 -6.37273630e+00
 -1.64962350e+00  2.39005251e+00 -6.37273630e+00 -1.64962350e+00  2.39005251e+00
 -6.37273630e+00 -1.64962350e+00  2.39005251e+00 -6.37273630e+00 -1.64962350e+00
  2.39005251e+00 -6.37273630e+00 -1.64962350e+00  2.39005251e+00 -6.37273630e+00
 -1.64962350e+00  2.39005251e+00 -6.37273630e+00 -1.64962350e+00  2.39005251e+00
 -6.37273630e+00 -1.64962350e+00  2.39005251e+00 -6.37273630e+00 -1.64962350e+00
  2.39005251e+00 -6.37273630e+00 -1.64962350e+00  2.39005251e+00  3.65152827e+00
 -2.41654964e+00 -6.78848370e-01  3.65152827e+00 -2.41654964e+00 -6.78848370e-01
  3.65152827e+00 -2.41654964e+00 -6.78848370e-01  3.65152827e+00 -2.41654964e+00
 -6.78848370e-01  3.65152827e+00 -2.41654964e+00 -6.78848370e-01  3.65152827e+00
 -2.41654964e+00 -6.78848370e-01  3.65152827e+00 -2.41654964e+00 -6.78848370e-01
  3.65152827e+00 -2.41654964e+00 -6.78848370e-01  4.27341110e+00 -4.26111104e+00
 -2.30670116e+00  4.27341110e+00 -4.26111104e+00 -2.30670116e+00  4.27341110e+00