Generated by Psi4
     FORCE                           RHF                       TESTBAS
Number of atoms                            I               31
Charge                                     I                0
Multiplicity                               I                1
Number of electrons                        I              110
Number of alpha electrons                  I               55
Number of beta electrons                   I               55
Number of basis functions                  I              317
Number of independent functions            I              317
Atomic numbers                             I   N=          31
           6           6           6           6           8           6
           6           7           6           6           1           1
           1           1           1           1           6           6
           1           1           7           1           1           6
           1           1           1           6           1           1
           1
Nuclear charges                            R   N=          31
  6.00000000e+00  6.00000000e+00  6.00000000e+00  6.00000000e+00  8.00000000e+00
  6.00000000e+00  6.00000000e+00  7.00000000e+00  6.00000000e+00  6.00000000e+00
  1.00000000e+00  1.00000000e+00  1.00000000e+00  1.00000000e+00  1.00000000e+00
  1.00000000e+00  6.00000000e+00  6.00000000e+00  1.00000000e+00  1.00000000e+00
  7.00000000e+00  1.00000000e+00  1.00000000e+00  6.00000000e+00  1.00000000e+00
  1.00000000e+00  1.00000000e+00  6.00000000e+00  1.00000000e+00  1.00000000e+00
  1.00000000e+00
Current cartesian coordinates              R   N=          93
 -1.01967798e+00 -1.35189789e+00 -1.64491283e+00  2.86656844e+00  7.95179665e-01
  5.38841514e-01  1.21416782e+00  2.05211006e-01 -1.45900172e+00  4.90960219e+00
  2.37396854e+00  6.31952414e-02  6.49504024e+00  2.91478702e+00  2.06380336e+00
  5.34441109e+00  3.38690273e+00 -2.36712053e+00 -1.79544870e+00 -1.20926213e+00
 -4.12244349e+00 -1.94924122e-01  3.40502866e-01 -5.48749837e+00  1.68069346e+00
  1.23448692e+00 -3.89915213e+00  3.73424479e+00  2.82458477e+00 -4.37201958e+00
  6.96024005e+00  4.62144471e+00 -2.67878098e+00  4.08477588e+00  3.60794721e+00
 -6.23884887e+00  7.84127108e+00  4.02114225e+00  1.50056792e+00  2.58775059e+00
  5.41730861e-02  2.43213238e+00 -3.49796046e-01  7.19914690e-01 -7.34835299e+00
 -3.38380921e+00 -2.11786473e+00 -5.03703229e+00 -2.27121300e+00 -2.81845504e+00
  4.42869867e-01 -3.84524197e+00 -1.13514950e+00  2.22584751e+00 -8.22048933e-01
 -3.83790666e+00  1.52164690e+00 -3.53157053e+00 -4.25754151e+00 -3.56244388e-01
 -5.25414765e+00 -2.56489133e+00  4.13351330e+00 -5.22468643e+00 -1.03491285e-01
  1.07517030e+00 -2.61092361e+00  3.07019360e-01  3.11485284e+00 -3.62323436e+00
 -3.68188546e+00  6.05569638e+00 -2.27004402e+00 -4.98656125e+00  5.19766704e+00
 -4.77569891e+00 -4.76289960e+00  7.39304197e+00 -2.54964064e+00 -2.24107572e+00
  7.13702626e+00 -7.20389169e+00 -1.00737423e+00  5.30496129e+00 -8.49272625e+00
 -2.85552336e-01  3.85498913e+00 -6.42017458e+00  6.28935091e-01  6.35548766e+00
 -8.30521001e+00 -2.15249771e+00  6.63297968e+00
Integer atomic weights                     I   N=          31
          12          12          12          12          15          12
          12          14          12          12           1           1
           1           1           1           1          12          12
           1           1          14           1           1          12
           1           1           1          12           1           1
           1
Real atomic weights                        R   N=          31
  1.20000000e+01  1.20000000e+01  1.20000000e+01  1.20000000e+01  1.59949146e+01
  1.20000000e+01  1.20000000e+01  1.40030740e+01  1.20000000e+01  1.20000000e+01
  1.00782503e+00  1.00782503e+00  1.00782503e+00  1.00782503e+00  1.00782503e+00
  1.00782503e+00  1.20000000e+01  1.20000000e+01  1.00782503e+00  1.00782503e+00
  1.40030740e+01  1.00782503e+00  1.00782503e+00  1.20000000e+01  1.00782503e+00
  1.00782503e+00  1.00782503e+00  1.20000000e+01  1.00782503e+00  1.00782503e+00
  1.00782503e+00
Number of primitive shells                 I              319
Number of contracted shells                I              152
Pure/Cartesian d shells                    I                1
Pure/Cartesian f shells                    I                1
Highest angular momentum                   I                2
Largest degree of contraction              I                6
Shell types                                I   N=         152
           0           0           1           0           1           2
           0           1           0           0           1           0
           1           2           0           1           0           0
           1           0           1           2           0           1
           0           0           1           0           1           2
           0           1           0           0           1           0
           1           2           0           1           0           0
           1           0           1           2           0           1
           0           0           1           0           1           2
           0           1           0           0           1           0
           1           2           0           1           0           0
           1           0           1           2           0           1
           0           0           1           0           1           2
           0           1           0           0           0           0
           0           0           0           0           0           0
           0           0           0           0           1           0
           1           2           0           1           0           0
           1           0           1           2           0           1
           0           0           0           0           0           0
           1           0           1           2           0           1
           0           0           0           0           0           0
           1           0           1           2           0           1
           0           0           0           0           0           0
           0           0           1           0           1           2
           0           1           0           0           0           0
           0           0
Number of primitives per shell             I   N=         152
           6           3           3           1           1           1
           1           1           6           3           3           1
           1           1           1           1           6           3
           3           1           1           1           1           1
           6           3           3           1           1           1
           1           1           6           3           3           1
           1           1           1           1           6           3
           3           1           1           1           1           1
           6           3           3           1           1           1
           1           1           6           3           3           1
           1           1           1           1           6           3
           3           1           1           1           1           1
           6           3           3           1           1           1
           1           1           3           1           3           1
           3           1           3           1           3           1
           3           1           6           3           3           1
           1           1           1           1           6           3
           3           1           1           1           1           1
           3           1           3           1           6           3
           3           1           1           1           1           1
           3           1           3           1           6           3
           3           1           1           1           1           1
           3           1           3           1           3           1
           6           3           3           1           1           1
           1           1           3           1           3           1
           3           1
Shell to atom map                          I   N=         152
           1           1           1           1           1           1
           1           1           2           2           2           2
           2           2           2           2           3           3
           3           3           3           3           3           3
           4           4           4           4           4           4
           4           4           5           5           5           5
           5           5           5           5           6           6
           6           6           6           6           6           6
           7           7           7           7           7           7
           7           7           8           8           8           8
           8           8           8           8           9           9
           9           9           9           9           9           9
          10          10          10          10          10          10
          10          10          11          11          12          12
          13          13          14          14          15          15
          16          16          17          17          17          17
          17          17          17          17          18          18
          18          18          18          18          18          18
          19          19          20          20          21          21
          21          21          21          21          21          21
          22          22          23          23          24          24
          24          24          24          24          24          24
          25          25          26          26          27          27
          28          28          28          28          28          28
          28          28          29          29          30          30
          31          31
Primitive exponents                        R   N=         319
  3.04752490e+03  4.57369510e+02  1.03948690e+02  2.92101550e+01  9.28666300e+00
  3.16392700e+00  7.86827240e+00  1.88128850e+00  5.44249300e-01  7.86827240e+00
  1.88128850e+00  5.44249300e-01  1.68714400e-01  1.68714400e-01  8.00000000e-01
  4.38000000e-02  4.38000000e-02  3.04752490e+03  4.57369510e+02  1.03948690e+02
  2.92101550e+01  9.28666300e+00  3.16392700e+00  7.86827240e+00  1.88128850e+00
  5.44249300e-01  7.86827240e+00  1.88128850e+00  5.44249300e-01  1.68714400e-01
  1.68714400e-01  8.00000000e-01  4.38000000e-02  4.38000000e-02  3.04752490e+03
  4.57369510e+02  1.03948690e+02  2.92101550e+01  9.28666300e+00  3.16392700e+00
  7.86827240e+00  1.88128850e+00  5.44249300e-01  7.86827240e+00  1.88128850e+00
  5.44249300e-01  1.68714400e-01  1.68714400e-01  8.00000000e-01  4.38000000e-02
  4.38000000e-02  3.04752490e+03  4.57369510e+02  1.03948690e+02  2.92101550e+01
  9.28666300e+00  3.16392700e+00  7.86827240e+00  1.88128850e+00  5.44249300e-01
  7.86827240e+00  1.88128850e+00  5.44249300e-01  1.68714400e-01  1.68714400e-01
  8.00000000e-01  4.38000000e-02  4.38000000e-02  5.48467170e+03  8.25234950e+02
  1.88046960e+02  5.29645000e+01  1.68975700e+01  5.79963530e+00  1.55396160e+01
  3.59993360e+00  1.01376180e+00  1.55396160e+01  3.59993360e+00  1.01376180e+00
  2.70005800e-01  2.70005800e-01  8.00000000e-01  8.45000000e-02  8.45000000e-02
  3.04752490e+03  4.57369510e+02  1.03948690e+02  2.92101550e+01  9.28666300e+00
  3.16392700e+00  7.86827240e+00  1.88128850e+00  5.44249300e-01  7.86827240e+00
  1.88128850e+00  5.44249300e-01  1.68714400e-01  1.68714400e-01  8.00000000e-01
  4.38000000e-02  4.38000000e-02  3.04752490e+03  4.57369510e+02  1.03948690e+02
  2.92101550e+01  9.28666300e+00  3.16392700e+00  7.86827240e+00  1.88128850e+00
  5.44249300e-01  7.86827240e+00  1.88128850e+00  5.44249300e-01  1.68714400e-01
  1.68714400e-01  8.00000000e-01  4.38000000e-02  4.38000000e-02  4.17351100e+03
  6.27457900e+02  1.42902100e+02  4.02343300e+01  1.28202100e+01  4.39043700e+00
  1.16263580e+01  2.71628000e+00  7.72218000e-01  1.16263580e+01  2.71628000e+00
  7.72218000e-01  2.12031300e-01  2.12031300e-01  8.00000000e-01  6.39000000e-02
  6.39000000e-02  3.04752490e+03  4.57369510e+02  1.03948690e+02  2.92101550e+01
  9.28666300e+00  3.16392700e+00  7.86827240e+00  1.88128850e+00  5.44249300e-01
  7.86827240e+00  1.88128850e+00  5.44249300e-01  1.68714400e-01  1.68714400e-01
  8.00000000e-01  4.38000000e-02  4.38000000e-02  3.04752490e+03  4.57369510e+02
  1.03948690e+02  2.92101550e+01  9.28666300e+00  3.16392700e+00  7.86827240e+00
  1.88128850e+00  5.44249300e-01  7.86827240e+00  1.88128850e+00  5.44249300e-01
  1.68714400e-01  1.68714400e-01  8.00000000e-01  4.38000000e-02  4.38000000e-02
  1.87311370e+01  2.82539370e+00  6.40121700e-01  1.61277800e-01  1.87311370e+01
  2.82539370e+00  6.40121700e-01  1.61277800e-01  1.87311370e+01  2.82539370e+00
  6.40121700e-01  1.61277800e-01  1.87311370e+01  2.82539370e+00  6.40121700e-01
  1.61277800e-01  1.87311370e+01  2.82539370e+00  6.40121700e-01  1.61277800e-01
  1.87311370e+01  2.82539370e+00  6.40121700e-01  1.61277800e-01  3.04752490e+03
  4.57369510e+02  1.03948690e+02  2.92101550e+01  9.28666300e+00  3.16392700e+00
  7.86827240e+00  1.88128850e+00  5.44249300e-01  7.86827240e+00  1.88128850e+00
  5.44249300e-01  1.68714400e-01  1.68714400e-01  8.00000000e-01  4.38000000e-02
  4.38000000e-02  3.04752490e+03  4.57369510e+02  1.03948690e+02  2.92101550e+01
  9.28666300e+00  3.16392700e+00  7.86827240e+00  1.88128850e+00  5.44249300e-01
  7.86827240e+00  1.88128850e+00  5.44249300e-01  1.68714400e-01  1.68714400e-01
  8.00000000e-01  4.38000000e-02  4.38000000e-02  1.87311370e+01  2.82539370e+00
  6.40121700e-01  1.61277800e-01  1.87311370e+01  2.82539370e+00  6.40121700e-01
  1.61277800e-01  4.17351100e+03  6.27457900e+02  1.42902100e+02  4.02343300e+01
  1.28202100e+01  4.39043700e+00  1.16263580e+01  2.71628000e+00  7.72218000e-01
  1.16263580e+01  2.71628000e+00  7.72218000e-01  2.12031300e-01  2.12031300e-01
  8.00000000e-01  6.39000000e-02  6.39000000e-02  1.87311370e+01  2.82539370e+00
  6.40121700e-01  1.61277800e-01  1.87311370e+01  2.82539370e+00  6.40121700e-01
  1.61277800e-01  3.04752490e+03  4.57369510e+02  1.03948690e+02  2.92101550e+01
  9.28666300e+00  3.16392700e+00  7.86827240e+00  1.88128850e+00  5.44249300e-01
  7.86827240e+00  1.88128850e+00  5.44249300e-01  1.68714400e-01  1.68714400e-01
  8.00000000e-01  4.38000000e-02  4.38000000e-02  1.87311370e+01  2.82539370e+00
  6.40121700e-01  1.61277800e-01  1.87311370e+01  2.82539370e+00  6.40121700e-01
  1.61277800e-01  1.87311370e+01  2.82539370e+00  6.40121700e-01  1.61277800e-01
  3.04752490e+03  4.57369510e+02  1.03948690e+02  2.92101550e+01  9.28666300e+00
  3.16392700e+00  7.86827240e+00  1.88128850e+00  5.44249300e-01  7.86827240e+00
  1.88128850e+00  5.44249300e-01  1.68714400e-01  1.68714400e-01  8.00000000e-01
  4.38000000e-02  4.38000000e-02  1.87311370e+01  2.82539370e+00  6.40121700e-01
  1.61277800e-01  1.87311370e+01  2.82539370e+00  6.40121700e-01  1.61277800e-01
  1.87311370e+01  2.82539370e+00  6.40121700e-01  1.61277800e-01
Contraction coefficients                   R   N=         319
  1.83470016e-03  1.40373012e-02  6.88426061e-02  2.32184421e-01  4.67941342e-01
  3.62312032e-01 -1.19332409e-01 -1.60854212e-01  1.14345648e+00  6.89990956e-02
  3.16423980e-01  7.44308252e-01  1.00000000e+00  1.00000000e+00  1.00000000e+00
  1.00000000e+00  1.00000000e+00  1.83470016e-03  1.40373012e-02  6.88426061e-02
  2.32184421e-01  4.67941342e-01  3.62312032e-01 -1.19332409e-01 -1.60854212e-01
  1.14345648e+00  6.89990956e-02  3.16423980e-01  7.44308252e-01  1.00000000e+00
  1.00000000e+00  1.00000000e+00  1.00000000e+00  1.00000000e+00  1.83470016e-03
  1.40373012e-02  6.88426061e-02  2.32184421e-01  4.67941342e-01  3.62312032e-01
 -1.19332409e-01 -1.60854212e-01  1.14345648e+00  6.89990956e-02  3.16423980e-01
  7.44308252e-01  1.00000000e+00  1.00000000e+00  1.00000000e+00  1.00000000e+00
  1.00000000e+00  1.83470016e-03  1.40373012e-02  6.88426061e-02  2.32184421e-01
  4.67941342e-01  3.62312032e-01 -1.19332409e-01 -1.60854212e-01  1.14345648e+00
  6.89990956e-02  3.16423980e-01  7.44308252e-01  1.00000000e+00  1.00000000e+00
  1.00000000e+00  1.00000000e+00  1.00000000e+00  1.83109981e-03  1.39500985e-02
  6.84450927e-02  2.32714275e-01  4.70192950e-01  3.58520862e-01 -1.10777504e-01
 -1.48026305e-01  1.13076704e+00  7.08742995e-02  3.39752798e-01  7.27158595e-01
  1.00000000e+00  1.00000000e+00  1.00000000e+00  1.00000000e+00  1.00000000e+00
  1.83470016e-03  1.40373012e-02  6.88426061e-02  2.32184421e-01  4.67941342e-01
  3.62312032e-01 -1.19332409e-01 -1.60854212e-01  1.14345648e+00  6.89990956e-02
  3.16423980e-01  7.44308252e-01  1.00000000e+00  1.00000000e+00  1.00000000e+00
  1.00000000e+00  1.00000000e+00  1.83470016e-03  1.40373012e-02  6.88426061e-02
  2.32184421e-01  4.67941342e-01  3.62312032e-01 -1.19332409e-01 -1.60854212e-01
  1.14345648e+00  6.89990956e-02  3.16423980e-01  7.44308252e-01  1.00000000e+00
  1.00000000e+00  1.00000000e+00  1.00000000e+00  1.00000000e+00  1.83479944e-03
  1.39949958e-02  6.85869792e-02  2.32240930e-01  4.69069858e-01  3.60454891e-01
 -1.14961023e-01 -1.69118034e-01  1.14585223e+00  6.75800232e-02  3.23907111e-01
  7.40895255e-01  1.00000000e+00  1.00000000e+00  1.00000000e+00  1.00000000e+00
  1.00000000e+00  1.83470016e-03  1.40373012e-02  6.88426061e-02  2.32184421e-01
  4.67941342e-01  3.62312032e-01 -1.19332409e-01 -1.60854212e-01  1.14345648e+00
  6.89990956e-02  3.16423980e-01  7.44308252e-01  1.00000000e+00  1.00000000e+00
  1.00000000e+00  1.00000000e+00  1.00000000e+00  1.83470016e-03  1.40373012e-02
  6.88426061e-02  2.32184421e-01  4.67941342e-01  3.62312032e-01 -1.19332409e-01
 -1.60854212e-01  1.14345648e+00  6.89990956e-02  3.16423980e-01  7.44308252e-01
  1.00000000e+00  1.00000000e+00  1.00000000e+00  1.00000000e+00  1.00000000e+00
  3.34945995e-02  2.34726947e-01  8.13757318e-01  1.00000000e+00  3.34945995e-02
  2.34726947e-01  8.13757318e-01  1.00000000e+00  3.34945995e-02  2.34726947e-01
  8.13757318e-01  1.00000000e+00  3.34945995e-02  2.34726947e-01  8.13757318e-01
  1.00000000e+00  3.34945995e-02  2.34726947e-01  8.13757318e-01  1.00000000e+00
  3.34945995e-02  2.34726947e-01  8.13757318e-01  1.00000000e+00  1.83470016e-03
  1.40373012e-02  6.88426061e-02  2.32184421e-01  4.67941342e-01  3.62312032e-01
 -1.19332409e-01 -1.60854212e-01  1.14345648e+00  6.89990956e-02  3.16423980e-01
  7.44308252e-01  1.00000000e+00  1.00000000e+00  1.00000000e+00  1.00000000e+00
  1.00000000e+00  1.83470016e-03  1.40373012e-02  6.88426061e-02  2.32184421e-01
  4.67941342e-01  3.62312032e-01 -1.19332409e-01 -1.60854212e-01  1.14345648e+00
  6.89990956e-02  3.16423980e-01  7.44308252e-01  1.00000000e+00  1.00000000e+00
  1.00000000e+00  1.00000000e+00  1.00000000e+00  3.34945995e-02  2.34726947e-01
  8.13757318e-01  1.00000000e+00  3.34945995e-02  2.34726947e-01  8.13757318e-01
  1.00000000e+00  1.83479944e-03  1.39949958e-02  6.85869792e-02  2.32240930e-01
  4.69069858e-01  3.60454891e-01 -1.14961023e-01 -1.69118034e-01  1.14585223e+00
  6.75800232e-02  3.23907111e-01  7.40895255e-01  1.00000000e+00  1.00000000e+00
  1.00000000e+00  1.00000000e+00  1.00000000e+00  3.34945995e-02  2.34726947e-01
  8.13757318e-01  1.00000000e+00  3.34945995e-02  2.34726947e-01  8.13757318e-01
  1.00000000e+00  1.83470016e-03  1.40373012e-02  6.88426061e-02  2.32184421e-01
  4.67941342e-01  3.62312032e-01 -1.19332409e-01 -1.60854212e-01  1.14345648e+00
  6.89990956e-02  3.16423980e-01  7.44308252e-01  1.00000000e+00  1.00000000e+00
  1.00000000e+00  1.00000000e+00  1.00000000e+00  3.34945995e-02  2.34726947e-01
  8.13757318e-01  1.00000000e+00  3.34945995e-02  2.34726947e-01  8.13757318e-01
  1.00000000e+00  3.34945995e-02  2.34726947e-01  8.13757318e-01  1.00000000e+00
  1.83470016e-03  1.40373012e-02  6.88426061e-02  2.32184421e-01  4.67941342e-01
  3.62312032e-01 -1.19332409e-01 -1.60854212e-01  1.14345648e+00  6.89990956e-02
  3.16423980e-01  7.44308252e-01  1.00000000e+00  1.00000000e+00  1.00000000e+00
  1.00000000e+00  1.00000000e+00  3.34945995e-02  2.34726947e-01  8.13757318e-01
  1.00000000e+00  3.34945995e-02  2.34726947e-01  8.13757318e-01  1.00000000e+00
  3.34945995e-02  2.34726947e-01  8.13757318e-01  1.00000000e+00
Coordinates of each shell                  R   N=         456
 -1.01967798e+00 -1.35189789e+00 -1.64491283e+00 -1.01967798e+00 -1.35189789e+00
 -1.64491283e+00 -1.01967798e+00 -1.35189789e+00 -1.64491283e+00 -1.01967798e+00
 -1.35189789e+00 -1.64491283e+00 -1.01967798e+00 -1.35189789e+00 -1.64491283e+00
 -1.01967798e+00 -1.35189789e+00 -1.64491283e+00 -1.01967798e+00 -1.35189789e+00
 -1.64491283e+00 -1.01967798e+00 -1.35189789e+00 -1.64491283e+00  2.86656844e+00
  7.95179665e-01  5.38841514e-01  2.86656844e+00  7.95179665e-01  5.38841514e-01
  2.86656844e+00  7.95179665e-01  5.38841514e-01  2.86656844e+00  7.95179665e-01
  5.38841514e-01  2.86656844e+00  7.95179665e-01  5.38841514e-01  2.86656844e+00
  7.95179665e-01  5.38841514e-01  2.86656844e+00  7.95179665e-01  5.38841514e-01
  2.86656844e+00  7.95179665e-01  5.38841514e-01  1.21416782e+00  2.05211006e-01
 -1.45900172e+00  1.21416782e+00  2.05211006e-01 -1.45900172e+00  1.21416782e+00
  2.05211006e-01 -1.45900172e+00  1.21416782e+00  2.05211006e-01 -1.45900172e+00
  1.21416782e+00  2.05211006e-01 -1.45900172e+00  1.21416782e+00  2.05211006e-01
 -1.45900172e+00  1.21416782e+00  2.05211006e-01 -1.45900172e+00  1.21416782e+00
  2.05211006e-01 -1.45900172e+00  4.90960219e+00  2.37396854e+00  6.31952414e-02
  4.90960219e+00  2.37396854e+00  6.31952414e-02  4.90960219e+00  2.37396854e+00
  6.31952414e-02  4.90960219e+00  2.37396854e+00  6.31952414e-02  4.90960219e+00
  2.37396854e+00  6.31952414e-02  4.90960219e+00  2.37396854e+00  6.31952414e-02
  4.90960219e+00  2.37396854e+00  6.31952414e-02  4.90960219e+00  2.37396854e+00
  6.31952414e-02  6.49504024e+00  2.91478702e+00  2.06380336e+00  6.49504024e+00
  2.91478702e+00  2.06380336e+00  6.49504024e+00  2.91478702e+00  2.06380336e+00
  6.49504024e+00  2.91478702e+00  2.06380336e+00  6.49504024e+00  2.91478702e+00
  2.06380336e+00  6.49504024e+00  2.91478702e+00  2.06380336e+00  6.49504024e+00
  2.91478702e+00  2.06380336e+00  6.49504024e+00  2.91478702e+00  2.06380336e+00
  5.34441109e+00  3.38690273e+00 -2.36712053e+00  5.34441109e+00  3.38690273e+00
 -2.36712053e+00  5.34441109e+00  3.38690273e+00 -2.36712053e+00  5.34441109e+00
  3.38690273e+00 -2.36712053e+00  5.34441109e+00  3.38690273e+00 -2.36712053e+00
  5.34441109e+00  3.38690273e+00 -2.36712053e+00  5.34441109e+00  3.38690273e+00
 -2.36712053e+00  5.34441109e+00  3.38690273e+00 -2.36712053e+00 -1.79544870e+00
 -1.20926213e+00 -4.12244349e+00 -1.79544870e+00 -1.20926213e+00 -4.12244349e+00
 -1.79544870e+00 -1.20926213e+00 -4.12244349e+00 -1.79544870e+00 -1.20926213e+00
 -4.12244349e+00 -1.79544870e+00 -1.20926213e+00 -4.12244349e+00 -1.79544870e+00
 -1.20926213e+00 -4.12244349e+00 -1.79544870e+00 -1.20926213e+00 -4.12244349e+00
 -1.79544870e+00 -1.20926213e+00 -4.12244349e+00 -1.94924122e-01  3.40502866e-01
 -5.48749837e+00 -1.94924122e-01  3.40502866e-01 -5.48749837e+00 -1.94924122e-01
  3.40502866e-01 -5.48749837e+00 -1.94924122e-01  3.40502866e-01 -5.48749837e+00
 -1.94924122e-01  3.40502866e-01 -5.48749837e+00 -1.94924122e-01  3.40502866e-01
 -5.48749837e+00 -1.94924122e-01  3.40502866e-01 -5.48749837e+00 -1.94924122e-01
  3.40502866e-01 -5.48749837e+00  1.68069346e+00  1.23448692e+00 -3.89915213e+00
  1.68069346e+00  1.23448692e+00 -3.89915213e+00  1.68069346e+00  1.23448692e+00
 -3.89915213e+00  1.68069346e+00  1.23448692e+00 -3.89915213e+00  1.68069346e+00
  1.23448692e+00 -3.89915213e+00  1.68069346e+00  1.23448692e+00 -3.89915213e+00
  1.68069346e+00  1.23448692e+00 -3.89915213e+00  1.68069346e+00  1.23448692e+00
 -3.89915213e+00  3.73424479e+00  2.82458477e+00 -4.37201958e+00  3.73424479e+00
  2.82458477e+00 -4.37201958e+00  3.73424479e+00  2.82458477e+00 -4.37201958e+00
  3.73424479e+00  2.82458477e+00 -4.37201958e+00  3.73424479e+00  2.82458477e+00
 -4.37201958e+00  3.73424479e+00  2.82458477e+00 -4.37201958e+00  3.73424479e+00
  2.82458477e+00 -4.37201958e+00  3.73424479e+00  2.82458477e+00 -4.37201958e+00
  6.96024005e+00  4.62144471e+00 -2.67878098e+00  6.96024005e+00  4.62144471e+00
 -2.67878098e+00  4.08477588e+00  3.60794721e+00 -6.23884887e+00  4.08477588e+00
  3.60794721e+00 -6.23884887e+00  7.84127108e+00  4.02114225e+00  1.50056792e+00
  7.84127108e+00  4.02114225e+00  1.50056792e+00  2.58775059e+00  5.41730861e-02
  2.43213238e+00  2.58775059e+00  5.41730861e-02  2.43213238e+00 -3.49796046e-01
  7.19914690e-01 -7.34835299e+00 -3.49796046e-01  7.19914690e-01 -7.34835299e+00
 -3.38380921e+00 -2.11786473e+00 -5.03703229e+00 -3.38380921e+00 -2.11786473e+00
 -5.03703229e+00 -2.27121300e+00 -2.81845504e+00  4.42869867e-01 -2.27121300e+00
 -2.81845504e+00  4.42869867e-01 -2.27121300e+00 -2.81845504e+00  4.42869867e-01
 -2.27121300e+00 -2.81845504e+00  4.42869867e-01 -2.27121300e+00 -2.81845504e+00
  4.42869867e-01 -2.27121300e+00 -2.81845504e+00  4.42869867e-01 -2.27121300e+00
 -2.81845504e+00  4.42869867e-01 -2.27121300e+00 -2.81845504e+00  4.42869867e-01
 -3.84524197e+00 -1.13514950e+00  2.22584751e+00 -3.84524197e+00 -1.13514950e+00
  2.22584751e+00 -3.84524197e+00 -1.13514950e+00  2.22584751e+00 -3.84524197e+00
 -1.13514950e+00  2.22584751e+00 -3.84524197e+00 -1.13514950e+00  2.22584751e+00
 -3.84524197e+00 -1.13514950e+00  2.22584751e+00 -3.84524197e+00 -1.13514950e+00
  2.22584751e+00 -3.84524197e+00 -1.13514950e+00  2.22584751e+00 -8.22048933e-01
 -3.83790666e+00  1.52164690e+00 -8.22048933e-01 -3.83790666e+00  1.52164690e+00
 -3.53157053e+00 -4.25754151e+00 -3.56244388e-01 -3.53157053e+00 -4.25754151e+00
 -3.56244388e-01 -5.25414765e+00 -2.56489133e+00  4.13351330e+00 -5.25414765e+00
 -2.56489133e+00  4.13351330e+00 -5.25414765e+00 -2.56489133e+00  4.13351330e+00
 -5.25414765e+00 -2.56489133e+00  4.13351330e+00 -5.25414765e+00 -2.56489133e+00
  4.13351330e+00 -5.25414765e+00 -2.56489133e+00  4.13351330e+00 -5.25414765e+00
 -2.56489133e+00  4.13351330e+00 -5.25414765e+00 -2.56489133e+00  4.13351330e+00
 -5.22468643e+00 -1.03491285e-01  1.07517030e+00 -5.22468643e+00 -1.03491285e-01
  1.07517030e+00 -2.61092361e+00  3.07019360e-01  3.11485284e+00 -2.61092361e+00
  3.07019360e-01  3.11485284e+00 -3.62323436e+00 -3.68188546e+00  6.05569638e+00
 -3.62323436e+00 -3.68188546e+00  6.05569638e+00 -3.62323436e+00 -3.68188546e+00
  6.05569638e+00 -3.62323436e+00 -3.68188546e+00  6.05569638e+00 -3.62323436e+00
 -3.68188546e+00  6.05569638e+00 -3.62323436e+00 -3.68188546e+00  6.05569638e+00
 -3.62323436e+00 -3.68188546e+00  6.05569638e+00 -3.62323436e+00 -3.68188546e+00
  6.05569638e+00 -2.27004402e+00 -4.98656125e+00  5.19766704e+00 -2.27004402e+00
 -4.98656125e+00  5.19766704e+00 -4.77569891e+00 -4.76289960e+00  7.39304197e+00
 -4.77569891e+00 -4.76289960e+00  7.39304197e+00 -2.54964064e+00 -2.24107572e+00
  7.13702626e+00 -2.54964064e+00 -2.24107572e+00  7.13702626e+00 -7.20389169e+00
 -1.00737423e+00  5.30496129e+00 -7.20389169e+00 -1.00737423e+00  5.30496129e+00
 -7.20389169e+00 -1.00737423e+00  5.30496129e+00 -7.20389169e+00 -1.00737423e+00
  5.30496129e+00 -7.20389169e+00 -1.00737423e+00  5.30496129e+00 -7.20389169e+00
 -1.00737423e+00  5.30496129e+00 -7.20389169e+00 -1.00737423e+00  5.30496129e+00
 -7.20389169e+00 -1.00737423e+00  5.30496129e+00 -8.49272625e+00 -2.85552336e-01
  3.85498913e+00 -8.49272625e+00 -2.85552336e-01  3.85498913e+00 -6.42017458e+00
  6.28935091e-01  6.35548766e+00 -6.42017458e+00  6.28935091e-01  6.35548766e+00
 -8.30521001e+00 -2.15249771e+00  6.63297968e+00 -8.30521001e+00 -2.15249771e+00
  6.63297968e+00
Total Energy                               R     -6.516464411200056e+02
Alpha Orbital Energies                     R   N=         317
 -1.91802368e+01 -1.43838484e+01 -1.43287681e+01 -1.02457730e+01 -1.02217591e+01
 -1.02205174e+01 -1.02056872e+01 -1.02015849e+01 -1.02010187e+01 -1.02003238e+01
 -1.01939686e+01 -1.01896154e+01 -1.01871120e+01 -1.01843048e+01 -1.01835472e+01
 -1.05489486e+00 -9.81066735e-01 -9.19144405e-01 -8.41515575e-01 -8.03341975e-01
 -7.50680241e-01 -7.34426897e-01 -7.18611947e-01 -7.03205234e-01 -6.56172282e-01
 -6.25861630e-01 -6.14250107e-01 -5.82458761e-01 -5.65997555e-01 -5.42268026e-01
 -5.22237096e-01 -4.86337064e-01 -4.77624552e-01 -4.73241292e-01 -4.61998252e-01
 -4.50568293e-01 -4.41048711e-01 -4.26351299e-01 -4.24029644e-01 -4.08048604e-01
 -3.96868552e-01 -3.93865182e-01 -3.90663004e-01 -3.86236774e-01 -3.79817492e-01
 -3.67724196e-01 -3.61462690e-01 -3.54577458e-01 -3.40600971e-01 -3.30148675e-01
 -3.10846267e-01 -2.74943394e-01 -2.17522059e-01 -2.11710778e-01 -1.99706178e-01
 -2.26726227e-02 -4.41878746e-03 -4.86423546e-04  9.64166911e-03  1.96613606e-02
  2.31619831e-02  2.54991224e-02  2.81178838e-02  3.51659355e-02  4.37479295e-02
  4.65829891e-02  5.26112377e-02  5.55558359e-02  6.07615909e-02  6.62203766e-02
  6.93029382e-02  7.10216482e-02  7.99183893e-02  8.11893641e-02  9.22490263e-02
  9.37442354e-02  1.00379075e-01  1.03520401e-01  1.07673748e-01  1.13377401e-01
  1.20299603e-01  1.26294988e-01  1.29494884e-01  1.36286184e-01  1.40423216e-01
  1.45318661e-01  1.46914805e-01  1.53615449e-01  1.57987342e-01  1.62897851e-01
  1.63082585e-01  1.66842543e-01  1.73626196e-01  1.81539095e-01  1.83597680e-01
  1.84420814e-01  1.89614326e-01  1.98189628e-01  2.01785463e-01  2.07536972e-01