Generated by Psi4
     FORCE                           RHF                       TESTBAS
Number of atoms                            I               28
Charge                                     I                0
Multiplicity                               I                1
Number of electrons                        I               96
Number of alpha electrons                  I               48
Number of beta electrons                   I               48
Number of basis functions                  I              277
Number of independent functions            I              277
Atomic numbers                             I   N=          28
           6           6           6           7           6           6
           6           6           6           1           1           6
           1           6           1           8           1           1
           1           1           1           1           6           1
           1           1           1           1
Nuclear charges                            R   N=          28
  6.00000000e+00  6.00000000e+00  6.00000000e+00  7.00000000e+00  6.00000000e+00
  6.00000000e+00  6.00000000e+00  6.00000000e+00  6.00000000e+00  1.00000000e+00
  1.00000000e+00  6.00000000e+00  1.00000000e+00  6.00000000e+00  1.00000000e+00
  8.00000000e+00  1.00000000e+00  1.00000000e+00  1.00000000e+00  1.00000000e+00
  1.00000000e+00  1.00000000e+00  6.00000000e+00  1.00000000e+00  1.00000000e+00
  1.00000000e+00  1.00000000e+00  1.00000000e+00
Current cartesian coordinates              R   N=          84
  7.28113260e-01 -9.39335875e-01 -1.03060389e+00 -1.92701692e+00 -6.74244215e-02
 -5.35486466e-01 -2.61753016e+00  1.61117183e+00  1.75160167e+00 -1.81788822e+00
  5.06725806e-01  4.16497936e+00  2.70000541e+00 -7.44886489e-01  7.41191942e-01
  5.12692680e+00 -1.58268142e+00  1.25521093e-01  5.61822281e+00 -2.61199037e+00
 -2.25553487e+00  3.66555288e+00 -2.81698291e+00 -4.02908432e+00  1.24143131e+00
 -1.99446045e+00 -3.41850303e+00  2.29974567e+00  3.70590126e-04  2.60664193e+00
  6.63383807e+00 -1.43714321e+00  1.51431005e+00 -1.50537364e+00  4.29589634e+00
  1.46881673e+00 -4.69656227e+00  1.76045213e+00  1.63509822e+00 -3.17545172e+00
 -1.80555236e+00  4.84987166e+00 -2.06223150e+00  1.82493044e+00  5.54625713e+00
 -3.61199128e+00 -5.81512444e-01 -2.04041195e+00  7.51057616e+00 -3.25806237e+00
 -2.72864916e+00  4.03788405e+00 -3.61831731e+00 -5.88362327e+00 -2.92978584e-01
 -2.14552888e+00 -4.77132397e+00 -2.66167055e+00 -3.33215869e+00  3.54893562e+00
 -5.25205246e+00 -1.59904281e+00  4.80145596e+00 -2.60866634e+00 -2.38464695e+00
  6.75329284e+00 -2.37942427e+00  5.69864222e+00 -9.10567453e-01  5.63379861e-01
  4.19667078e+00  1.51976127e+00 -2.08814939e+00  5.37719586e+00  3.14646300e+00
 -1.72490086e+00  4.76701057e+00 -2.63977665e+00 -1.63741805e+00  7.63226303e+00
 -9.19266338e-01 -4.44646638e+00  5.80643114e+00 -1.00525112e+00
Integer atomic weights                     I   N=          28
          12          12          12          14          12          12
          12          12          12           1           1          12
           1          12           1          15           1           1
           1           1           1           1          12           1
           1           1           1           1
Real atomic weights                        R   N=          28
  1.20000000e+01  1.20000000e+01  1.20000000e+01  1.40030740e+01  1.20000000e+01
  1.20000000e+01  1.20000000e+01  1.20000000e+01  1.20000000e+01  1.00782503e+00
  1.00782503e+00  1.20000000e+01  1.00782503e+00  1.20000000e+01  1.00782503e+00
  1.59949146e+01  1.00782503e+00  1.00782503e+00  1.00782503e+00  1.00782503e+00
  1.00782503e+00  1.00782503e+00  1.20000000e+01  1.00782503e+00  1.00782503e+00
  1.00782503e+00  1.00782503e+00  1.00782503e+00
Number of primitive shells                 I              281
Number of contracted shells                I              134
Pure/Cartesian d shells                    I                1
Pure/Cartesian f shells                    I                1
Highest angular momentum                   I                2
Largest degree of contraction              I                6
Shell types                                I   N=         134
           0           0           1           0           1           2
           0           1           0           0           1           0
           1           2           0           1           0           0
           1           0           1           2           0           1
           0           0           1           0           1           2
           0           1           0           0           1           0
           1           2           0           1           0           0
           1           0           1           2           0           1
           0           0           1           0           1           2
           0           1           0           0           1           0
           1           2           0           1           0           0
           1           0           1           2           0           1
           0           0           0           0           0           0
           1           0           1           2           0           1
           0           0           0           0           1           0
           1           2           0           1           0           0
           0           0           1           0           1           2
           0           1           0           0           0           0
           0           0           0           0           0           0
           0           0           0           0           1           0
           1           2           0           1           0           0
           0           0           0           0           0           0
           0           0
Number of primitives per shell             I   N=         134
           6           3           3           1           1           1
           1           1           6           3           3           1
           1           1           1           1           6           3
           3           1           1           1           1           1
           6           3           3           1           1           1
           1           1           6           3           3           1
           1           1           1           1           6           3
           3           1           1           1           1           1
           6           3           3           1           1           1
           1           1           6           3           3           1
           1           1           1           1           6           3
           3           1           1           1           1           1
           3           1           3           1           6           3
           3           1           1           1           1           1
           3           1           6           3           3           1
           1           1           1           1           3           1
           6           3           3           1           1           1
           1           1           3           1           3           1
           3           1           3           1           3           1
           3           1           6           3           3           1
           1           1           1           1           3           1
           3           1           3           1           3           1
           3           1
Shell to atom map                          I   N=         134
           1           1           1           1           1           1
           1           1           2           2           2           2
           2           2           2           2           3           3
           3           3           3           3           3           3
           4           4           4           4           4           4
           4           4           5           5           5           5
           5           5           5           5           6           6
           6           6           6           6           6           6
           7           7           7           7           7           7
           7           7           8           8           8           8
           8           8           8           8           9           9
           9           9           9           9           9           9
          10          10          11          11          12          12
          12          12          12          12          12          12
          13          13          14          14          14          14
          14          14          14          14          15          15
          16          16          16          16          16          16
          16          16          17          17          18          18
          19          19          20          20          21          21
          22          22          23          23          23          23
          23          23          23          23          24          24
          25          25          26          26          27          27
          28          28
Primitive exponents                        R   N=         281
  3.04752490e+03  4.57369510e+02  1.03948690e+02  2.92101550e+01  9.28666300e+00
  3.16392700e+00  7.86827240e+00  1.88128850e+00  5.44249300e-01  7.86827240e+00
  1.88128850e+00  5.44249300e-01  1.68714400e-01  1.68714400e-01  8.00000000e-01
  4.38000000e-02  4.38000000e-02  3.04752490e+03  4.57369510e+02  1.03948690e+02
  2.92101550e+01  9.28666300e+00  3.16392700e+00  7.86827240e+00  1.88128850e+00
  5.44249300e-01  7.86827240e+00  1.88128850e+00  5.44249300e-01  1.68714400e-01
  1.68714400e-01  8.00000000e-01  4.38000000e-02  4.38000000e-02  3.04752490e+03
  4.57369510e+02  1.03948690e+02  2.92101550e+01  9.28666300e+00  3.16392700e+00
  7.86827240e+00  1.88128850e+00  5.44249300e-01  7.86827240e+00  1.88128850e+00
  5.44249300e-01  1.68714400e-01  1.68714400e-01  8.00000000e-01  4.38000000e-02
  4.38000000e-02  4.17351100e+03  6.27457900e+02  1.42902100e+02  4.02343300e+01
  1.28202100e+01  4.39043700e+00  1.16263580e+01  2.71628000e+00  7.72218000e-01
  1.16263580e+01  2.71628000e+00  7.72218000e-01  2.12031300e-01  2.12031300e-01
  8.00000000e-01  6.39000000e-02  6.39000000e-02  3.04752490e+03  4.57369510e+02
  1.03948690e+02  2.92101550e+01  9.28666300e+00  3.16392700e+00  7.86827240e+00
  1.88128850e+00  5.44249300e-01  7.86827240e+00  1.88128850e+00  5.44249300e-01
  1.68714400e-01  1.68714400e-01  8.00000000e-01  4.38000000e-02  4.38000000e-02
  3.04752490e+03  4.57369510e+02  1.03948690e+02  2.92101550e+01  9.28666300e+00
  3.16392700e+00  7.86827240e+00  1.88128850e+00  5.44249300e-01  7.86827240e+00
  1.88128850e+00  5.44249300e-01  1.68714400e-01  1.68714400e-01  8.00000000e-01
  4.38000000e-02  4.38000000e-02  3.04752490e+03  4.57369510e+02  1.03948690e+02
  2.92101550e+01  9.28666300e+00  3.16392700e+00  7.86827240e+00  1.88128850e+00
  5.44249300e-01  7.86827240e+00  1.88128850e+00  5.44249300e-01  1.68714400e-01
  1.68714400e-01  8.00000000e-01  4.38000000e-02  4.38000000e-02  3.04752490e+03
  4.57369510e+02  1.03948690e+02  2.92101550e+01  9.28666300e+00  3.16392700e+00
  7.86827240e+00  1.88128850e+00  5.44249300e-01  7.86827240e+00  1.88128850e+00
  5.44249300e-01  1.68714400e-01  1.68714400e-01  8.00000000e-01  4.38000000e-02
  4.38000000e-02  3.04752490e+03  4.57369510e+02  1.03948690e+02  2.92101550e+01
  9.28666300e+00  3.16392700e+00  7.86827240e+00  1.88128850e+00  5.44249300e-01
  7.86827240e+00  1.88128850e+00  5.44249300e-01  1.68714400e-01  1.68714400e-01
  8.00000000e-01  4.38000000e-02  4.38000000e-02  1.87311370e+01  2.82539370e+00
  6.40121700e-01  1.61277800e-01  1.87311370e+01  2.82539370e+00  6.40121700e-01
  1.61277800e-01  3.04752490e+03  4.57369510e+02  1.03948690e+02  2.92101550e+01
  9.28666300e+00  3.16392700e+00  7.86827240e+00  1.88128850e+00  5.44249300e-01
  7.86827240e+00  1.88128850e+00  5.44249300e-01  1.68714400e-01  1.68714400e-01
  8.00000000e-01  4.38000000e-02  4.38000000e-02  1.87311370e+01  2.82539370e+00
  6.40121700e-01  1.61277800e-01  3.04752490e+03  4.57369510e+02  1.03948690e+02
  2.92101550e+01  9.28666300e+00  3.16392700e+00  7.86827240e+00  1.88128850e+00
  5.44249300e-01  7.86827240e+00  1.88128850e+00  5.44249300e-01  1.68714400e-01
  1.68714400e-01  8.00000000e-01  4.38000000e-02  4.38000000e-02  1.87311370e+01
  2.82539370e+00  6.40121700e-01  1.61277800e-01  5.48467170e+03  8.25234950e+02
  1.88046960e+02  5.29645000e+01  1.68975700e+01  5.79963530e+00  1.55396160e+01
  3.59993360e+00  1.01376180e+00  1.55396160e+01  3.59993360e+00  1.01376180e+00
  2.70005800e-01  2.70005800e-01  8.00000000e-01  8.45000000e-02  8.45000000e-02
  1.87311370e+01  2.82539370e+00  6.40121700e-01  1.61277800e-01  1.87311370e+01
  2.82539370e+00  6.40121700e-01  1.61277800e-01  1.87311370e+01  2.82539370e+00
  6.40121700e-01  1.61277800e-01  1.87311370e+01  2.82539370e+00  6.40121700e-01
  1.61277800e-01  1.87311370e+01  2.82539370e+00  6.40121700e-01  1.61277800e-01
  1.87311370e+01  2.82539370e+00  6.40121700e-01  1.61277800e-01  3.04752490e+03
  4.57369510e+02  1.03948690e+02  2.92101550e+01  9.28666300e+00  3.16392700e+00
  7.86827240e+00  1.88128850e+00  5.44249300e-01  7.86827240e+00  1.88128850e+00
  5.44249300e-01  1.68714400e-01  1.68714400e-01  8.00000000e-01  4.38000000e-02
  4.38000000e-02  1.87311370e+01  2.82539370e+00  6.40121700e-01  1.61277800e-01
  1.87311370e+01  2.82539370e+00  6.40121700e-01  1.61277800e-01  1.87311370e+01
  2.82539370e+00  6.40121700e-01  1.61277800e-01  1.87311370e+01  2.82539370e+00
  6.40121700e-01  1.61277800e-01  1.87311370e+01  2.82539370e+00  6.40121700e-01
  1.61277800e-01
Contraction coefficients                   R   N=         281
  1.83470016e-03  1.40373012e-02  6.88426061e-02  2.32184421e-01  4.67941342e-01
  3.62312032e-01 -1.19332409e-01 -1.60854212e-01  1.14345648e+00  6.89990956e-02
  3.16423980e-01  7.44308252e-01  1.00000000e+00  1.00000000e+00  1.00000000e+00
  1.00000000e+00  1.00000000e+00  1.83470016e-03  1.40373012e-02  6.88426061e-02
  2.32184421e-01  4.67941342e-01  3.62312032e-01 -1.19332409e-01 -1.60854212e-01
  1.14345648e+00  6.89990956e-02  3.16423980e-01  7.44308252e-01  1.00000000e+00
  1.00000000e+00  1.00000000e+00  1.00000000e+00  1.00000000e+00  1.83470016e-03
  1.40373012e-02  6.88426061e-02  2.32184421e-01  4.67941342e-01  3.62312032e-01
 -1.19332409e-01 -1.60854212e-01  1.14345648e+00  6.89990956e-02  3.16423980e-01
  7.44308252e-01  1.00000000e+00  1.00000000e+00  1.00000000e+00  1.00000000e+00
  1.00000000e+00  1.83479944e-03  1.39949958e-02  6.85869792e-02  2.32240930e-01
  4.69069858e-01  3.60454891e-01 -1.14961023e-01 -1.69118034e-01  1.14585223e+00
  6.75800232e-02  3.23907111e-01  7.40895255e-01  1.00000000e+00  1.00000000e+00
  1.00000000e+00  1.00000000e+00  1.00000000e+00  1.83470016e-03  1.40373012e-02
  6.88426061e-02  2.32184421e-01  4.67941342e-01  3.62312032e-01 -1.19332409e-01
 -1.60854212e-01  1.14345648e+00  6.89990956e-02  3.16423980e-01  7.44308252e-01
  1.00000000e+00  1.00000000e+00  1.00000000e+00  1.00000000e+00  1.00000000e+00
  1.83470016e-03  1.40373012e-02  6.88426061e-02  2.32184421e-01  4.67941342e-01
  3.62312032e-01 -1.19332409e-01 -1.60854212e-01  1.14345648e+00  6.89990956e-02
  3.16423980e-01  7.44308252e-01  1.00000000e+00  1.00000000e+00  1.00000000e+00
  1.00000000e+00  1.00000000e+00  1.83470016e-03  1.40373012e-02  6.88426061e-02
  2.32184421e-01  4.67941342e-01  3.62312032e-01 -1.19332409e-01 -1.60854212e-01
  1.14345648e+00  6.89990956e-02  3.16423980e-01  7.44308252e-01  1.00000000e+00
  1.00000000e+00  1.00000000e+00  1.00000000e+00  1.00000000e+00  1.83470016e-03
  1.40373012e-02  6.88426061e-02  2.32184421e-01  4.67941342e-01  3.62312032e-01
 -1.19332409e-01 -1.60854212e-01  1.14345648e+00  6.89990956e-02  3.16423980e-01
  7.44308252e-01  1.00000000e+00  1.00000000e+00  1.00000000e+00  1.00000000e+00
  1.00000000e+00  1.83470016e-03  1.40373012e-02  6.88426061e-02  2.32184421e-01
  4.67941342e-01  3.62312032e-01 -1.19332409e-01 -1.60854212e-01  1.14345648e+00
  6.89990956e-02  3.16423980e-01  7.44308252e-01  1.00000000e+00  1.00000000e+00
  1.00000000e+00  1.00000000e+00  1.00000000e+00  3.34945995e-02  2.34726947e-01
  8.13757318e-01  1.00000000e+00  3.34945995e-02  2.34726947e-01  8.13757318e-01
  1.00000000e+00  1.83470016e-03  1.40373012e-02  6.88426061e-02  2.32184421e-01
  4.67941342e-01  3.62312032e-01 -1.19332409e-01 -1.60854212e-01  1.14345648e+00
  6.89990956e-02  3.16423980e-01  7.44308252e-01  1.00000000e+00  1.00000000e+00
  1.00000000e+00  1.00000000e+00  1.00000000e+00  3.34945995e-02  2.34726947e-01
  8.13757318e-01  1.00000000e+00  1.83470016e-03  1.40373012e-02  6.88426061e-02
  2.32184421e-01  4.67941342e-01  3.62312032e-01 -1.19332409e-01 -1.60854212e-01
  1.14345648e+00  6.89990956e-02  3.16423980e-01  7.44308252e-01  1.00000000e+00
  1.00000000e+00  1.00000000e+00  1.00000000e+00  1.00000000e+00  3.34945995e-02
  2.34726947e-01  8.13757318e-01  1.00000000e+00  1.83109981e-03  1.39500985e-02
  6.84450927e-02  2.32714275e-01  4.70192950e-01  3.58520862e-01 -1.10777504e-01
 -1.48026305e-01  1.13076704e+00  7.08742995e-02  3.39752798e-01  7.27158595e-01
  1.00000000e+00  1.00000000e+00  1.00000000e+00  1.00000000e+00  1.00000000e+00
  3.34945995e-02  2.34726947e-01  8.13757318e-01  1.00000000e+00  3.34945995e-02
  2.34726947e-01  8.13757318e-01  1.00000000e+00  3.34945995e-02  2.34726947e-01
  8.13757318e-01  1.00000000e+00  3.34945995e-02  2.34726947e-01  8.13757318e-01
  1.00000000e+00  3.34945995e-02  2.34726947e-01  8.13757318e-01  1.00000000e+00
  3.34945995e-02  2.34726947e-01  8.13757318e-01  1.00000000e+00  1.83470016e-03
  1.40373012e-02  6.88426061e-02  2.32184421e-01  4.67941342e-01  3.62312032e-01
 -1.19332409e-01 -1.60854212e-01  1.14345648e+00  6.89990956e-02  3.16423980e-01
  7.44308252e-01  1.00000000e+00  1.00000000e+00  1.00000000e+00  1.00000000e+00
  1.00000000e+00  3.34945995e-02  2.34726947e-01  8.13757318e-01  1.00000000e+00
  3.34945995e-02  2.34726947e-01  8.13757318e-01  1.00000000e+00  3.34945995e-02
  2.34726947e-01  8.13757318e-01  1.00000000e+00  3.34945995e-02  2.34726947e-01
  8.13757318e-01  1.00000000e+00  3.34945995e-02  2.34726947e-01  8.13757318e-01
  1.00000000e+00
Coordinates of each shell                  R   N=         402
  7.28113260e-01 -9.39335875e-01 -1.03060389e+00  7.28113260e-01 -9.39335875e-01
 -1.03060389e+00  7.28113260e-01 -9.39335875e-01 -1.03060389e+00  7.28113260e-01
 -9.39335875e-01 -1.03060389e+00  7.28113260e-01 -9.39335875e-01 -1.03060389e+00
  7.28113260e-01 -9.39335875e-01 -1.03060389e+00  7.28113260e-01 -9.39335875e-01
 -1.03060389e+00  7.28113260e-01 -9.39335875e-01 -1.03060389e+00 -1.92701692e+00
 -6.74244215e-02 -5.35486466e-01 -1.92701692e+00 -6.74244215e-02 -5.35486466e-01
 -1.92701692e+00 -6.74244215e-02 -5.35486466e-01 -1.92701692e+00 -6.74244215e-02
 -5.35486466e-01 -1.92701692e+00 -6.74244215e-02 -5.35486466e-01 -1.92701692e+00
 -6.74244215e-02 -5.35486466e-01 -1.92701692e+00 -6.74244215e-02 -5.35486466e-01
 -1.92701692e+00 -6.74244215e-02 -5.35486466e-01 -2.61753016e+00  1.61117183e+00
  1.75160167e+00 -2.61753016e+00  1.61117183e+00  1.75160167e+00 -2.61753016e+00
  1.61117183e+00  1.75160167e+00 -2.61753016e+00  1.61117183e+00  1.75160167e+00
 -2.61753016e+00  1.61117183e+00  1.75160167e+00 -2.61753016e+00  1.61117183e+00
  1.75160167e+00 -2.61753016e+00  1.61117183e+00  1.75160167e+00 -2.61753016e+00
  1.61117183e+00  1.75160167e+00 -1.81788822e+00  5.06725806e-01  4.16497936e+00
 -1.81788822e+00  5.06725806e-01  4.16497936e+00 -1.81788822e+00  5.06725806e-01
  4.16497936e+00 -1.81788822e+00  5.06725806e-01  4.16497936e+00 -1.81788822e+00
  5.06725806e-01  4.16497936e+00 -1.81788822e+00  5.06725806e-01  4.16497936e+00
 -1.81788822e+00  5.06725806e-01  4.16497936e+00 -1.81788822e+00  5.06725806e-01
  4.16497936e+00  2.70000541e+00 -7.44886489e-01  7.41191942e-01  2.70000541e+00
 -7.44886489e-01  7.41191942e-01  2.70000541e+00 -7.44886489e-01  7.41191942e-01
  2.70000541e+00 -7.44886489e-01  7.41191942e-01  2.70000541e+00 -7.44886489e-01
  7.41191942e-01  2.70000541e+00 -7.44886489e-01  7.41191942e-01  2.70000541e+00
 -7.44886489e-01  7.41191942e-01  2.70000541e+00 -7.44886489e-01  7.41191942e-01
  5.12692680e+00 -1.58268142e+00  1.25521093e-01  5.12692680e+00 -1.58268142e+00
  1.25521093e-01  5.12692680e+00 -1.58268142e+00  1.25521093e-01  5.12692680e+00
 -1.58268142e+00  1.25521093e-01  5.12692680e+00 -1.58268142e+00  1.25521093e-01
  5.12692680e+00 -1.58268142e+00  1.25521093e-01  5.12692680e+00 -1.58268142e+00
  1.25521093e-01  5.12692680e+00 -1.58268142e+00  1.25521093e-01  5.61822281e+00
 -2.61199037e+00 -2.25553487e+00  5.61822281e+00 -2.61199037e+00 -2.25553487e+00
  5.61822281e+00 -2.61199037e+00 -2.25553487e+00  5.61822281e+00 -2.61199037e+00
 -2.25553487e+00  5.61822281e+00 -2.61199037e+00 -2.25553487e+00  5.61822281e+00
 -2.61199037e+00 -2.25553487e+00  5.61822281e+00 -2.61199037e+00 -2.25553487e+00
  5.61822281e+00 -2.61199037e+00 -2.25553487e+00  3.66555288e+00 -2.81698291e+00
 -4.02908432e+00  3.66555288e+00 -2.81698291e+00 -4.02908432e+00  3.66555288e+00
 -2.81698291e+00 -4.02908432e+00  3.66555288e+00 -2.81698291e+00 -4.02908432e+00
  3.66555288e+00 -2.81698291e+00 -4.02908432e+00  3.66555288e+00 -2.81698291e+00
 -4.02908432e+00  3.66555288e+00 -2.81698291e+00 -4.02908432e+00  3.66555288e+00
 -2.81698291e+00 -4.02908432e+00  1.24143131e+00 -1.99446045e+00 -3.41850303e+00
  1.24143131e+00 -1.99446045e+00 -3.41850303e+00  1.24143131e+00 -1.99446045e+00
 -3.41850303e+00  1.24143131e+00 -1.99446045e+00 -3.41850303e+00  1.24143131e+00
 -1.99446045e+00 -3.41850303e+00  1.24143131e+00 -1.99446045e+00 -3.41850303e+00
  1.24143131e+00 -1.99446045e+00 -3.41850303e+00  1.24143131e+00 -1.99446045e+00
 -3.41850303e+00  2.29974567e+00  3.70590126e-04  2.60664193e+00  2.29974567e+00
  3.70590126e-04  2.60664193e+00  6.63383807e+00 -1.43714321e+00  1.51431005e+00
  6.63383807e+00 -1.43714321e+00  1.51431005e+00 -1.50537364e+00  4.29589634e+00
  1.46881673e+00 -1.50537364e+00  4.29589634e+00  1.46881673e+00 -1.50537364e+00
  4.29589634e+00  1.46881673e+00 -1.50537364e+00  4.29589634e+00  1.46881673e+00
 -1.50537364e+00  4.29589634e+00  1.46881673e+00 -1.50537364e+00  4.29589634e+00
  1.46881673e+00 -1.50537364e+00  4.29589634e+00  1.46881673e+00 -1.50537364e+00
  4.29589634e+00  1.46881673e+00 -4.69656227e+00  1.76045213e+00  1.63509822e+00
 -4.69656227e+00  1.76045213e+00  1.63509822e+00 -3.17545172e+00 -1.80555236e+00
  4.84987166e+00 -3.17545172e+00 -1.80555236e+00  4.84987166e+00 -3.17545172e+00
 -1.80555236e+00  4.84987166e+00 -3.17545172e+00 -1.80555236e+00  4.84987166e+00
 -3.17545172e+00 -1.80555236e+00  4.84987166e+00 -3.17545172e+00 -1.80555236e+00
  4.84987166e+00 -3.17545172e+00 -1.80555236e+00  4.84987166e+00 -3.17545172e+00
 -1.80555236e+00  4.84987166e+00 -2.06223150e+00  1.82493044e+00  5.54625713e+00
 -2.06223150e+00  1.82493044e+00  5.54625713e+00 -3.61199128e+00 -5.81512444e-01
 -2.04041195e+00 -3.61199128e+00 -5.81512444e-01 -2.04041195e+00 -3.61199128e+00
 -5.81512444e-01 -2.04041195e+00 -3.61199128e+00 -5.81512444e-01 -2.04041195e+00
 -3.61199128e+00 -5.81512444e-01 -2.04041195e+00 -3.61199128e+00 -5.81512444e-01
 -2.04041195e+00 -3.61199128e+00 -5.81512444e-01 -2.04041195e+00 -3.61199128e+00
 -5.81512444e-01 -2.04041195e+00  7.51057616e+00 -3.25806237e+00 -2.72864916e+00
  7.51057616e+00 -3.25806237e+00 -2.72864916e+00  4.03788405e+00 -3.61831731e+00
 -5.88362327e+00  4.03788405e+00 -3.61831731e+00 -5.88362327e+00 -2.92978584e-01
 -2.14552888e+00 -4.77132397e+00 -2.92978584e-01 -2.14552888e+00 -4.77132397e+00
 -2.66167055e+00 -3.33215869e+00  3.54893562e+00 -2.66167055e+00 -3.33215869e+00
  3.54893562e+00 -5.25205246e+00 -1.59904281e+00  4.80145596e+00 -5.25205246e+00
 -1.59904281e+00  4.80145596e+00 -2.60866634e+00 -2.38464695e+00  6.75329284e+00
 -2.60866634e+00 -2.38464695e+00  6.75329284e+00 -2.37942427e+00  5.69864222e+00
 -9.10567453e-01 -2.37942427e+00  5.69864222e+00 -9.10567453e-01 -2.37942427e+00
  5.69864222e+00 -9.10567453e-01 -2.37942427e+00  5.69864222e+00 -9.10567453e-01
 -2.37942427e+00  5.69864222e+00 -9.10567453e-01 -2.37942427e+00  5.69864222e+00
 -9.10567453e-01 -2.37942427e+00  5.69864222e+00 -9.10567453e-01 -2.37942427e+00
  5.69864222e+00 -9.10567453e-01  5.63379861e-01  4.19667078e+00  1.51976127e+00
  5.63379861e-01  4.19667078e+00  1.51976127e+00 -2.08814939e+00  5.37719586e+00
  3.14646300e+00 -2.08814939e+00  5.37719586e+00  3.14646300e+00 -1.72490086e+00
  4.76701057e+00 -2.63977665e+00 -1.72490086e+00  4.76701057e+00 -2.63977665e+00
 -1.63741805e+00  7.63226303e+00 -9.19266338e-01 -1.63741805e+00  7.63226303e+00
 -9.19266338e-01 -4.44646638e+00  5.80643114e+00 -1.00525112e+00 -4.44646638e+00
  5.80643114e+00 -1.00525112e+00
Total Energy                               R     -5.581911736060883e+02
Alpha Orbital Energies                     R   N=         277
 -1.91469082e+01 -1.43384793e+01 -1.02800533e+01 -1.02272794e+01 -1.02118495e+01
 -1.02079494e+01 -1.02072930e+01 -1.02027791e+01 -1.02026726e+01 -1.02015823e+01
 -1.02012790e+01 -1.01997308e+01 -1.01830266e+01 -1.04437222e+00 -9.18810372e-01
 -8.64756532e-01 -7.91592143e-01 -7.66258370e-01 -7.55364811e-01 -7.08746422e-01
 -6.63142704e-01 -6.32569410e-01 -6.16093581e-01 -6.07877023e-01 -5.55900688e-01
 -5.09899341e-01 -5.01799049e-01 -4.81924957e-01 -4.65628374e-01 -4.59110306e-01
 -4.49637793e-01 -4.41929989e-01 -4.33146913e-01 -4.23805337e-01 -4.16588918e-01
 -3.99684698e-01 -3.93882617e-01 -3.85289418e-01 -3.69088683e-01 -3.65277387e-01
 -3.64511862e-01 -3.53410066e-01 -3.48268416e-01 -3.38118182e-01 -2.64876434e-01
 -2.62317617e-01 -2.56332252e-01 -2.37433196e-01 -6.63778242e-02 -1.78900971e-02
 -2.47170885e-03  8.13234663e-03  1.25920916e-02  1.98153039e-02  2.56228023e-02
  2.86588747e-02  3.44371031e-02  4.34785435e-02  5.04552346e-02  5.09355080e-02
  5.79347172e-02  6.21771767e-02  6.86729820e-02  7.42900641e-02  8.52427431e-02
  8.75934732e-02  8.84781131e-02  9.47640993e-02  1.04291019e-01  1.05957599e-01
  1.10885105e-01  1.17714409e-01  1.23778695e-01  1.29885377e-01  1.31412905e-01
  1.37196928e-01  1.41945903e-01  1.48117736e-01  1.53801273e-01  1.60924557e-01
  1.65548623e-01  1.69388339e-01  1.75847316e-01  1.80158389e-01  1.84974698e-01
  1.88358569e-01  1.91009819e-01  1.98254714e-01  1.99619353e-01  2.04655031e-01
  2.11754303e-01  2.15194016e-01  2.18838147e-01  2.22908193e-01  2.25646882e-01
  2.32088772e-01  2.37469265e-01  2.40150507e-01  2.43119363e-01  2.48153309e-01
  2.49249827e-01  2.57816568e-01  2.60416843e-01  2.70189777e-01  2.71182457e-01
  2.74953277e-01  2.82508451e-01  2.88159787e-01  2.92584385e-01  2.98414990e-01
  3.03589705e-01  3.09041936e-01  3.10646836e-01  3.23415961e-01  3.32759481e-01
  3.41306334e-01  3.48306313e-01  3.53990218e-01  3.55817827e-01  3.65015802e-01
  3.69510178e-01  3.81818479e-01  3.89781927e-01  4.04450141e-01  4.15462746e-01
  4.41171377e-01  4.54904290e-01  4.74992109e-01  4.79750702e-01  5.16512519e-01
  5.92442079e-01  6.11057869e-01  6.50669164e-01  6.62444238e-01  6.74450207e-01
  6.75174823e-01  6.85113351e-01  6.92409692e-01  6.93691054e-01  7.01896382e-01
  7.22216565e-01  7.25635771e-01  7.37798391e-01  7.43879248e-01  7.49872141e-01
  7.51039851e-01  7.58373777e-01  7.68970580e-01  7.76561737e-01  8.09690933e-01
  8.21766551e-01  8.31925889e-01  8.47513628e-01  8.51553523e-01  8.62128519e-01
  8.90327009e-01  8.99646132e-01  9.07479854e-01  9.37950634e-01  9.42172308e-01
  9.51907372e-01  9.66446455e-01  9.79169630e-01  9.89262240e-01  1.00354243e+00
  1.00784611e+00  1.01647215e+00  1.02969542e+00  1.05061121e+00  1.05590219e+00
  1.06239114e+00  1.07310508e+00  1.08416483e+00  1.09726537e+00  1.10632928e+00
  1.12281993e+00  1.14148662e+00  1.14769660e+00  1.16456230e+00  1.17117739e+00
  1.18733024e+00  1.19333640e+00  1.21670396e+00  1.23819882e+00  1.26286542e+00
  1.28845212e+00  1.29745370e+00  1.31580931e+00  1.35315524e+00  1.36063749e+00
  1.38310214e+00  1.39034601e+00  1.40793559e+00  1.43999084e+00  1.44698560e+00
  1.45996108e+00  1.47120532e+00  1.48184099e+00  1.48918370e+00  1.49416554e+00
  1.50754165e+00  1.55030553e+00  1.55252266e+00  1.58125888e+00  1.63803112e+00
  1.67846329e+00  1.72035703e+00  1.74285462e+00  1.78659937e+00  1.79373859e+00
  1.82833191e+00  1.85378109e+00  1.86441122e+00  1.88884332e+00  1.89543859e+00
  1.92053225e+00  1.94939245e+00  1.95624085e+00  1.97305780e+00  1.99286292e+00
  2.00806811e+00  2.01684001e+00  2.02181963e+00  2.04305242e+00  2.05194302e+00
  2.07841785e+00  2.09465508e+00  2.13324520e+00  2.14018764e+00  2.14601134e+00
  2.16400711e+00  2.17683343e+00  2.19524774e+00  2.24456813e+00  2.26735676e+00
  2.28184404e+00  2.30254288e+00  2.32504914e+00  2.34160216e+00  2.35070961e+00
  2.37724018e+00  2.38844064e+00  2.41481805e+00  2.45187873e+00  2.45322330e+00
  2.52898069e+00  2.57431181e+00  2.59495363e+00  2.59949924e+00  2.63328984e+00
  2.64021307e+00  2.65499966e+00  2.68272033e+00  2.72595893e+00  2.75726679e+00
  2.77246710e+00  2.80311331e+00  2.83328778e+00  2.87757212e+00  2.92335449e+00
  3.01334598e+00  3.12645455e+00  3.24956016e+00  3.40706327e+00  4.12780827e+00
  4.23107328e+00  4.23657156e+00  4.25486483e+00  4.29198815e+00  4.33756846e+00
  4.35704021e+00  4.38622578e+00  4.42294276e+00  4.46362435e+00  4.63358487e+00
  4.67586175e+00  4.78344574e+00
Alpha MO coefficients                      R   N=       76729
 -4.05891777e-06 -1.04884122e-04 -1.79601403e-05 -2.11158914e-05 -7.26898128e-06
  4.54094958e-04  2.47695643e-04  7.32699859e-05  2.07599357e-05  1.05127225e-04