Generated by Psi4
     FORCE                           RHF                       TESTBAS
Number of atoms                            I               32
Charge                                     I                0
Multiplicity                               I                1
Number of electrons                        I              120
Number of alpha electrons                  I               60
Number of beta electrons                   I               60
Number of basis functions                  I              336
Number of independent functions            I              336
Atomic numbers                             I   N=          32
           8           6           6           6           7           6
           7           6           8           8           1           1
           6           6           6           1           1           6
           1           1           1           1           1           6
           1           1           1           6           1           1
           1           1
Nuclear charges                            R   N=          32
  8.00000000e+00  6.00000000e+00  6.00000000e+00  6.00000000e+00  7.00000000e+00
  6.00000000e+00  7.00000000e+00  6.00000000e+00  8.00000000e+00  8.00000000e+00
  1.00000000e+00  1.00000000e+00  6.00000000e+00  6.00000000e+00  6.00000000e+00
  1.00000000e+00  1.00000000e+00  6.00000000e+00  1.00000000e+00  1.00000000e+00
  1.00000000e+00  1.00000000e+00  1.00000000e+00  6.00000000e+00  1.00000000e+00
  1.00000000e+00  1.00000000e+00  6.00000000e+00  1.00000000e+00  1.00000000e+00
  1.00000000e+00  1.00000000e+00
Current cartesian coordinates              R   N=          96
  2.64187196e+00 -2.76930662e+00  2.02342426e+00 -1.62651003e+00 -2.24297760e+00
 -1.42370864e+00 -7.67755573e-01 -1.58155112e-01  4.53518124e-01  1.91339612e+00
 -6.75801960e-01  1.39793155e+00  3.52390664e+00  1.38998300e+00  1.64148593e+00
  3.11036023e+00  3.85416757e+00  8.39214426e-01  7.67149453e-01  4.25016782e+00
 -2.71272327e-01 -1.13181556e+00  2.48091354e+00 -6.90440768e-01  4.67543229e+00
  5.52166752e+00  1.07849486e+00 -3.04939918e+00  3.09898016e+00 -1.80196284e+00
  4.53988395e-01  6.02460663e+00 -9.33500752e-01  5.26624897e+00  1.04101571e+00
  2.36860616e+00  1.11139340e-01 -2.86323218e+00 -3.68561098e+00 -2.58351819e+00
 -1.38494012e-01  2.84547905e+00 -2.76016562e+00 -2.57599609e+00  4.29971695e+00
 -4.45411367e+00  4.04890722e-01  2.14708889e+00 -1.94587668e+00  1.37800003e+00
  4.11723313e+00 -4.93129547e+00 -3.79928332e+00  4.71282910e+00 -3.49840143e+00
 -1.68409316e+00 -2.11579309e+00 -1.87699794e+00 -3.96935737e+00 -3.15517753e-01
 -1.01141864e+00 -3.32460526e+00  5.08162485e+00 -6.72194511e+00 -3.12439795e+00
  3.95682687e+00 -4.99387080e+00 -5.51881864e+00  5.83482030e+00  5.47759698e-01
 -6.44423246e-01 -5.51024227e+00 -1.24517355e+00  9.77800746e-02 -6.23892780e+00
  1.68914447e+00 -1.26119695e+00 -7.12649308e+00  1.56558874e+00  9.30744766e-01
 -4.62795762e+00 -1.00699662e+00 -5.13196154e+00 -5.12019306e+00  1.95288758e+00
 -3.45707734e+00 -2.93317620e+00 -2.85741460e+00 -4.65950644e+00 -5.93306220e+00
 -1.25920341e+00 -6.76731406e+00 -3.87253810e+00  2.34965031e-01 -5.70729869e+00
 -6.67593512e+00
Integer atomic weights                     I   N=          32
          15          12          12          12          14          12
          14          12          15          15           1           1
          12          12          12           1           1          12
           1           1           1           1           1          12
           1           1           1          12           1           1
           1           1
Real atomic weights                        R   N=          32
  1.59949146e+01  1.20000000e+01  1.20000000e+01  1.20000000e+01  1.40030740e+01
  1.20000000e+01  1.40030740e+01  1.20000000e+01  1.59949146e+01  1.59949146e+01
  1.00782503e+00  1.00782503e+00  1.20000000e+01  1.20000000e+01  1.20000000e+01
  1.00782503e+00  1.00782503e+00  1.20000000e+01  1.00782503e+00  1.00782503e+00
  1.00782503e+00  1.00782503e+00  1.00782503e+00  1.20000000e+01  1.00782503e+00
  1.00782503e+00  1.00782503e+00  1.20000000e+01  1.00782503e+00  1.00782503e+00
  1.00782503e+00  1.00782503e+00
Number of primitive shells                 I              336
Number of contracted shells                I              160
Pure/Cartesian d shells                    I                1
Pure/Cartesian f shells                    I                1
Highest angular momentum                   I                2
Largest degree of contraction              I                6
Shell types                                I   N=         160
           0           0           1           0           1           2
           0           1           0           0           1           0
           1           2           0           1           0           0
           1           0           1           2           0           1
           0           0           1           0           1           2
           0           1           0           0           1           0
           1           2           0           1           0           0
           1           0           1           2           0           1
           0           0           1           0           1           2
           0           1           0           0           1           0
           1           2           0           1           0           0
           1           0           1           2           0           1
           0           0           1           0           1           2
           0           1           0           0           0           0
           0           0           1           0           1           2
           0           1           0           0           1           0
           1           2           0           1           0           0
           1           0           1           2           0           1
           0           0           0           0           0           0
           1           0           1           2           0           1
           0           0           0           0           0           0
           0           0           0           0           0           0
           1           0           1           2           0           1
           0           0           0           0           0           0
           0           0           1           0           1           2
           0           1           0           0           0           0
           0           0           0           0
Number of primitives per shell             I   N=         160
           6           3           3           1           1           1
           1           1           6           3           3           1
           1           1           1           1           6           3
           3           1           1           1           1           1
           6           3           3           1           1           1
           1           1           6           3           3           1
           1           1           1           1           6           3
           3           1           1           1           1           1
           6           3           3           1           1           1
           1           1           6           3           3           1
           1           1           1           1           6           3
           3           1           1           1           1           1
           6           3           3           1           1           1
           1           1           3           1           3           1
           6           3           3           1           1           1
           1           1           6           3           3           1
           1           1           1           1           6           3
           3           1           1           1           1           1
           3           1           3           1           6           3
           3           1           1           1           1           1
           3           1           3           1           3           1
           3           1           3           1           6           3
           3           1           1           1           1           1
           3           1           3           1           3           1
           6           3           3           1           1           1
           1           1           3           1           3           1
           3           1           3           1
Shell to atom map                          I   N=         160
           1           1           1           1           1           1
           1           1           2           2           2           2
           2           2           2           2           3           3
           3           3           3           3           3           3
           4           4           4           4           4           4
           4           4           5           5           5           5
           5           5           5           5           6           6
           6           6           6           6           6           6
           7           7           7           7           7           7
           7           7           8           8           8           8
           8           8           8           8           9           9
           9           9           9           9           9           9
          10          10          10          10          10          10
          10          10          11          11          12          12
          13          13          13          13          13          13
          13          13          14          14          14          14
          14          14          14          14          15          15
          15          15          15          15          15          15
          16          16          17          17          18          18
          18          18          18          18          18          18
          19          19          20          20          21          21
          22          22          23          23          24          24
          24          24          24          24          24          24
          25          25          26          26          27          27
          28          28          28          28          28          28
          28          28          29          29          30          30
          31          31          32          32
Primitive exponents                        R   N=         336
  5.48467170e+03  8.25234950e+02  1.88046960e+02  5.29645000e+01  1.68975700e+01
  5.79963530e+00  1.55396160e+01  3.59993360e+00  1.01376180e+00  1.55396160e+01
  3.59993360e+00  1.01376180e+00  2.70005800e-01  2.70005800e-01  8.00000000e-01
  8.45000000e-02  8.45000000e-02  3.04752490e+03  4.57369510e+02  1.03948690e+02
  2.92101550e+01  9.28666300e+00  3.16392700e+00  7.86827240e+00  1.88128850e+00
  5.44249300e-01  7.86827240e+00  1.88128850e+00  5.44249300e-01  1.68714400e-01
  1.68714400e-01  8.00000000e-01  4.38000000e-02  4.38000000e-02  3.04752490e+03
  4.57369510e+02  1.03948690e+02  2.92101550e+01  9.28666300e+00  3.16392700e+00
  7.86827240e+00  1.88128850e+00  5.44249300e-01  7.86827240e+00  1.88128850e+00
  5.44249300e-01  1.68714400e-01  1.68714400e-01  8.00000000e-01  4.38000000e-02
  4.38000000e-02  3.04752490e+03  4.57369510e+02  1.03948690e+02  2.92101550e+01
  9.28666300e+00  3.16392700e+00  7.86827240e+00  1.88128850e+00  5.44249300e-01
  7.86827240e+00  1.88128850e+00  5.44249300e-01  1.68714400e-01  1.68714400e-01
  8.00000000e-01  4.38000000e-02  4.38000000e-02  4.17351100e+03  6.27457900e+02
  1.42902100e+02  4.02343300e+01  1.28202100e+01  4.39043700e+00  1.16263580e+01
  2.71628000e+00  7.72218000e-01  1.16263580e+01  2.71628000e+00  7.72218000e-01
  2.12031300e-01  2.12031300e-01  8.00000000e-01  6.39000000e-02  6.39000000e-02
  3.04752490e+03  4.57369510e+02  1.03948690e+02  2.92101550e+01  9.28666300e+00
  3.16392700e+00  7.86827240e+00  1.88128850e+00  5.44249300e-01  7.86827240e+00
  1.88128850e+00  5.44249300e-01  1.68714400e-01  1.68714400e-01  8.00000000e-01
  4.38000000e-02  4.38000000e-02  4.17351100e+03  6.27457900e+02  1.42902100e+02
  4.02343300e+01  1.28202100e+01  4.39043700e+00  1.16263580e+01  2.71628000e+00
  7.72218000e-01  1.16263580e+01  2.71628000e+00  7.72218000e-01  2.12031300e-01
  2.12031300e-01  8.00000000e-01  6.39000000e-02  6.39000000e-02  3.04752490e+03
  4.57369510e+02  1.03948690e+02  2.92101550e+01  9.28666300e+00  3.16392700e+00
  7.86827240e+00  1.88128850e+00  5.44249300e-01  7.86827240e+00  1.88128850e+00
  5.44249300e-01  1.68714400e-01  1.68714400e-01  8.00000000e-01  4.38000000e-02
  4.38000000e-02  5.48467170e+03  8.25234950e+02  1.88046960e+02  5.29645000e+01
  1.68975700e+01  5.79963530e+00  1.55396160e+01  3.59993360e+00  1.01376180e+00
  1.55396160e+01  3.59993360e+00  1.01376180e+00  2.70005800e-01  2.70005800e-01
  8.00000000e-01  8.45000000e-02  8.45000000e-02  5.48467170e+03  8.25234950e+02
  1.88046960e+02  5.29645000e+01  1.68975700e+01  5.79963530e+00  1.55396160e+01
  3.59993360e+00  1.01376180e+00  1.55396160e+01  3.59993360e+00  1.01376180e+00
  2.70005800e-01  2.70005800e-01  8.00000000e-01  8.45000000e-02  8.45000000e-02
  1.87311370e+01  2.82539370e+00  6.40121700e-01  1.61277800e-01  1.87311370e+01
  2.82539370e+00  6.40121700e-01  1.61277800e-01  3.04752490e+03  4.57369510e+02
  1.03948690e+02  2.92101550e+01  9.28666300e+00  3.16392700e+00  7.86827240e+00
  1.88128850e+00  5.44249300e-01  7.86827240e+00  1.88128850e+00  5.44249300e-01
  1.68714400e-01  1.68714400e-01  8.00000000e-01  4.38000000e-02  4.38000000e-02
  3.04752490e+03  4.57369510e+02  1.03948690e+02  2.92101550e+01  9.28666300e+00
  3.16392700e+00  7.86827240e+00  1.88128850e+00  5.44249300e-01  7.86827240e+00
  1.88128850e+00  5.44249300e-01  1.68714400e-01  1.68714400e-01  8.00000000e-01
  4.38000000e-02  4.38000000e-02  3.04752490e+03  4.57369510e+02  1.03948690e+02
  2.92101550e+01  9.28666300e+00  3.16392700e+00  7.86827240e+00  1.88128850e+00
  5.44249300e-01  7.86827240e+00  1.88128850e+00  5.44249300e-01  1.68714400e-01
  1.68714400e-01  8.00000000e-01  4.38000000e-02  4.38000000e-02  1.87311370e+01
  2.82539370e+00  6.40121700e-01  1.61277800e-01  1.87311370e+01  2.82539370e+00
  6.40121700e-01  1.61277800e-01  3.04752490e+03  4.57369510e+02  1.03948690e+02
  2.92101550e+01  9.28666300e+00  3.16392700e+00  7.86827240e+00  1.88128850e+00
  5.44249300e-01  7.86827240e+00  1.88128850e+00  5.44249300e-01  1.68714400e-01
  1.68714400e-01  8.00000000e-01  4.38000000e-02  4.38000000e-02  1.87311370e+01
  2.82539370e+00  6.40121700e-01  1.61277800e-01  1.87311370e+01  2.82539370e+00
  6.40121700e-01  1.61277800e-01  1.87311370e+01  2.82539370e+00  6.40121700e-01
  1.61277800e-01  1.87311370e+01  2.82539370e+00  6.40121700e-01  1.61277800e-01
  1.87311370e+01  2.82539370e+00  6.40121700e-01  1.61277800e-01  3.04752490e+03
  4.57369510e+02  1.03948690e+02  2.92101550e+01  9.28666300e+00  3.16392700e+00
  7.86827240e+00  1.88128850e+00  5.44249300e-01  7.86827240e+00  1.88128850e+00
  5.44249300e-01  1.68714400e-01  1.68714400e-01  8.00000000e-01  4.38000000e-02
  4.38000000e-02  1.87311370e+01  2.82539370e+00  6.40121700e-01  1.61277800e-01
  1.87311370e+01  2.82539370e+00  6.40121700e-01  1.61277800e-01  1.87311370e+01
  2.82539370e+00  6.40121700e-01  1.61277800e-01  3.04752490e+03  4.57369510e+02
  1.03948690e+02  2.92101550e+01  9.28666300e+00  3.16392700e+00  7.86827240e+00
  1.88128850e+00  5.44249300e-01  7.86827240e+00  1.88128850e+00  5.44249300e-01
  1.68714400e-01  1.68714400e-01  8.00000000e-01  4.38000000e-02  4.38000000e-02
  1.87311370e+01  2.82539370e+00  6.40121700e-01  1.61277800e-01  1.87311370e+01
  2.82539370e+00  6.40121700e-01  1.61277800e-01  1.87311370e+01  2.82539370e+00
  6.40121700e-01  1.61277800e-01  1.87311370e+01  2.82539370e+00  6.40121700e-01
  1.61277800e-01
Contraction coefficients                   R   N=         336
  1.83109981e-03  1.39500985e-02  6.84450927e-02  2.32714275e-01  4.70192950e-01
  3.58520862e-01 -1.10777504e-01 -1.48026305e-01  1.13076704e+00  7.08742995e-02
  3.39752798e-01  7.27158595e-01  1.00000000e+00  1.00000000e+00  1.00000000e+00
  1.00000000e+00  1.00000000e+00  1.83470016e-03  1.40373012e-02  6.88426061e-02
  2.32184421e-01  4.67941342e-01  3.62312032e-01 -1.19332409e-01 -1.60854212e-01
  1.14345648e+00  6.89990956e-02  3.16423980e-01  7.44308252e-01  1.00000000e+00
  1.00000000e+00  1.00000000e+00  1.00000000e+00  1.00000000e+00  1.83470016e-03
  1.40373012e-02  6.88426061e-02  2.32184421e-01  4.67941342e-01  3.62312032e-01
 -1.19332409e-01 -1.60854212e-01  1.14345648e+00  6.89990956e-02  3.16423980e-01
  7.44308252e-01  1.00000000e+00  1.00000000e+00  1.00000000e+00  1.00000000e+00
  1.00000000e+00  1.83470016e-03  1.40373012e-02  6.88426061e-02  2.32184421e-01
  4.67941342e-01  3.62312032e-01 -1.19332409e-01 -1.60854212e-01  1.14345648e+00
  6.89990956e-02  3.16423980e-01  7.44308252e-01  1.00000000e+00  1.00000000e+00
  1.00000000e+00  1.00000000e+00  1.00000000e+00  1.83479944e-03  1.39949958e-02
  6.85869792e-02  2.32240930e-01  4.69069858e-01  3.60454891e-01 -1.14961023e-01
 -1.69118034e-01  1.14585223e+00  6.75800232e-02  3.23907111e-01  7.40895255e-01
  1.00000000e+00  1.00000000e+00  1.00000000e+00  1.00000000e+00  1.00000000e+00
  1.83470016e-03  1.40373012e-02  6.88426061e-02  2.32184421e-01  4.67941342e-01
  3.62312032e-01 -1.19332409e-01 -1.60854212e-01  1.14345648e+00  6.89990956e-02
  3.16423980e-01  7.44308252e-01  1.00000000e+00  1.00000000e+00  1.00000000e+00
  1.00000000e+00  1.00000000e+00  1.83479944e-03  1.39949958e-02  6.85869792e-02
  2.32240930e-01  4.69069858e-01  3.60454891e-01 -1.14961023e-01 -1.69118034e-01
  1.14585223e+00  6.75800232e-02  3.23907111e-01  7.40895255e-01  1.00000000e+00
  1.00000000e+00  1.00000000e+00  1.00000000e+00  1.00000000e+00  1.83470016e-03
  1.40373012e-02  6.88426061e-02  2.32184421e-01  4.67941342e-01  3.62312032e-01
 -1.19332409e-01 -1.60854212e-01  1.14345648e+00  6.89990956e-02  3.16423980e-01
  7.44308252e-01  1.00000000e+00  1.00000000e+00  1.00000000e+00  1.00000000e+00
  1.00000000e+00  1.83109981e-03  1.39500985e-02  6.84450927e-02  2.32714275e-01
  4.70192950e-01  3.58520862e-01 -1.10777504e-01 -1.48026305e-01  1.13076704e+00
  7.08742995e-02  3.39752798e-01  7.27158595e-01  1.00000000e+00  1.00000000e+00
  1.00000000e+00  1.00000000e+00  1.00000000e+00  1.83109981e-03  1.39500985e-02
  6.84450927e-02  2.32714275e-01  4.70192950e-01  3.58520862e-01 -1.10777504e-01
 -1.48026305e-01  1.13076704e+00  7.08742995e-02  3.39752798e-01  7.27158595e-01
  1.00000000e+00  1.00000000e+00  1.00000000e+00  1.00000000e+00  1.00000000e+00
  3.34945995e-02  2.34726947e-01  8.13757318e-01  1.00000000e+00  3.34945995e-02
  2.34726947e-01  8.13757318e-01  1.00000000e+00  1.83470016e-03  1.40373012e-02
  6.88426061e-02  2.32184421e-01  4.67941342e-01  3.62312032e-01 -1.19332409e-01
 -1.60854212e-01  1.14345648e+00  6.89990956e-02  3.16423980e-01  7.44308252e-01
  1.00000000e+00  1.00000000e+00  1.00000000e+00  1.00000000e+00  1.00000000e+00
  1.83470016e-03  1.40373012e-02  6.88426061e-02  2.32184421e-01  4.67941342e-01
  3.62312032e-01 -1.19332409e-01 -1.60854212e-01  1.14345648e+00  6.89990956e-02
  3.16423980e-01  7.44308252e-01  1.00000000e+00  1.00000000e+00  1.00000000e+00
  1.00000000e+00  1.00000000e+00  1.83470016e-03  1.40373012e-02  6.88426061e-02
  2.32184421e-01  4.67941342e-01  3.62312032e-01 -1.19332409e-01 -1.60854212e-01
  1.14345648e+00  6.89990956e-02  3.16423980e-01  7.44308252e-01  1.00000000e+00
  1.00000000e+00  1.00000000e+00  1.00000000e+00  1.00000000e+00  3.34945995e-02
  2.34726947e-01  8.13757318e-01  1.00000000e+00  3.34945995e-02  2.34726947e-01
  8.13757318e-01  1.00000000e+00  1.83470016e-03  1.40373012e-02  6.88426061e-02
  2.32184421e-01  4.67941342e-01  3.62312032e-01 -1.19332409e-01 -1.60854212e-01
  1.14345648e+00  6.89990956e-02  3.16423980e-01  7.44308252e-01  1.00000000e+00
  1.00000000e+00  1.00000000e+00  1.00000000e+00  1.00000000e+00  3.34945995e-02
  2.34726947e-01  8.13757318e-01  1.00000000e+00  3.34945995e-02  2.34726947e-01
  8.13757318e-01  1.00000000e+00  3.34945995e-02  2.34726947e-01  8.13757318e-01
  1.00000000e+00  3.34945995e-02  2.34726947e-01  8.13757318e-01  1.00000000e+00
  3.34945995e-02  2.34726947e-01  8.13757318e-01  1.00000000e+00  1.83470016e-03
  1.40373012e-02  6.88426061e-02  2.32184421e-01  4.67941342e-01  3.62312032e-01
 -1.19332409e-01 -1.60854212e-01  1.14345648e+00  6.89990956e-02  3.16423980e-01
  7.44308252e-01  1.00000000e+00  1.00000000e+00  1.00000000e+00  1.00000000e+00
  1.00000000e+00  3.34945995e-02  2.34726947e-01  8.13757318e-01  1.00000000e+00
  3.34945995e-02  2.34726947e-01  8.13757318e-01  1.00000000e+00  3.34945995e-02
  2.34726947e-01  8.13757318e-01  1.00000000e+00  1.83470016e-03  1.40373012e-02
  6.88426061e-02  2.32184421e-01  4.67941342e-01  3.62312032e-01 -1.19332409e-01
 -1.60854212e-01  1.14345648e+00  6.89990956e-02  3.16423980e-01  7.44308252e-01
  1.00000000e+00  1.00000000e+00  1.00000000e+00  1.00000000e+00  1.00000000e+00
  3.34945995e-02  2.34726947e-01  8.13757318e-01  1.00000000e+00  3.34945995e-02
  2.34726947e-01  8.13757318e-01  1.00000000e+00  3.34945995e-02  2.34726947e-01
  8.13757318e-01  1.00000000e+00  3.34945995e-02  2.34726947e-01  8.13757318e-01
  1.00000000e+00
Coordinates of each shell                  R   N=         480
  2.64187196e+00 -2.76930662e+00  2.02342426e+00  2.64187196e+00 -2.76930662e+00
  2.02342426e+00  2.64187196e+00 -2.76930662e+00  2.02342426e+00  2.64187196e+00
 -2.76930662e+00  2.02342426e+00  2.64187196e+00 -2.76930662e+00  2.02342426e+00
  2.64187196e+00 -2.76930662e+00  2.02342426e+00  2.64187196e+00 -2.76930662e+00
  2.02342426e+00  2.64187196e+00 -2.76930662e+00  2.02342426e+00 -1.62651003e+00
 -2.24297760e+00 -1.42370864e+00 -1.62651003e+00 -2.24297760e+00 -1.42370864e+00
 -1.62651003e+00 -2.24297760e+00 -1.42370864e+00 -1.62651003e+00 -2.24297760e+00
 -1.42370864e+00 -1.62651003e+00 -2.24297760e+00 -1.42370864e+00 -1.62651003e+00
 -2.24297760e+00 -1.42370864e+00 -1.62651003e+00 -2.24297760e+00 -1.42370864e+00
 -1.62651003e+00 -2.24297760e+00 -1.42370864e+00 -7.67755573e-01 -1.58155112e-01
  4.53518124e-01 -7.67755573e-01 -1.58155112e-01  4.53518124e-01 -7.67755573e-01
 -1.58155112e-01  4.53518124e-01 -7.67755573e-01 -1.58155112e-01  4.53518124e-01
 -7.67755573e-01 -1.58155112e-01  4.53518124e-01 -7.67755573e-01 -1.58155112e-01
  4.53518124e-01 -7.67755573e-01 -1.58155112e-01  4.53518124e-01 -7.67755573e-01
 -1.58155112e-01  4.53518124e-01  1.91339612e+00 -6.75801960e-01  1.39793155e+00
  1.91339612e+00 -6.75801960e-01  1.39793155e+00  1.91339612e+00 -6.75801960e-01
  1.39793155e+00  1.91339612e+00 -6.75801960e-01  1.39793155e+00  1.91339612e+00
 -6.75801960e-01  1.39793155e+00  1.91339612e+00 -6.75801960e-01  1.39793155e+00
  1.91339612e+00 -6.75801960e-01  1.39793155e+00  1.91339612e+00 -6.75801960e-01
  1.39793155e+00  3.52390664e+00  1.38998300e+00  1.64148593e+00  3.52390664e+00
  1.38998300e+00  1.64148593e+00  3.52390664e+00  1.38998300e+00  1.64148593e+00
  3.52390664e+00  1.38998300e+00  1.64148593e+00  3.52390664e+00  1.38998300e+00
  1.64148593e+00  3.52390664e+00  1.38998300e+00  1.64148593e+00  3.52390664e+00
  1.38998300e+00  1.64148593e+00  3.52390664e+00  1.38998300e+00  1.64148593e+00
  3.11036023e+00  3.85416757e+00  8.39214426e-01  3.11036023e+00  3.85416757e+00
  8.39214426e-01  3.11036023e+00  3.85416757e+00  8.39214426e-01  3.11036023e+00
  3.85416757e+00  8.39214426e-01  3.11036023e+00  3.85416757e+00  8.39214426e-01
  3.11036023e+00  3.85416757e+00  8.39214426e-01  3.11036023e+00  3.85416757e+00
  8.39214426e-01  3.11036023e+00  3.85416757e+00  8.39214426e-01  7.67149453e-01
  4.25016782e+00 -2.71272327e-01  7.67149453e-01  4.25016782e+00 -2.71272327e-01
  7.67149453e-01  4.25016782e+00 -2.71272327e-01  7.67149453e-01  4.25016782e+00
 -2.71272327e-01  7.67149453e-01  4.25016782e+00 -2.71272327e-01  7.67149453e-01
  4.25016782e+00 -2.71272327e-01  7.67149453e-01  4.25016782e+00 -2.71272327e-01
  7.67149453e-01  4.25016782e+00 -2.71272327e-01 -1.13181556e+00  2.48091354e+00
 -6.90440768e-01 -1.13181556e+00  2.48091354e+00 -6.90440768e-01 -1.13181556e+00
  2.48091354e+00 -6.90440768e-01 -1.13181556e+00  2.48091354e+00 -6.90440768e-01
 -1.13181556e+00  2.48091354e+00 -6.90440768e-01 -1.13181556e+00  2.48091354e+00
 -6.90440768e-01 -1.13181556e+00  2.48091354e+00 -6.90440768e-01 -1.13181556e+00
  2.48091354e+00 -6.90440768e-01  4.67543229e+00  5.52166752e+00  1.07849486e+00
  4.67543229e+00  5.52166752e+00  1.07849486e+00  4.67543229e+00  5.52166752e+00
  1.07849486e+00  4.67543229e+00  5.52166752e+00  1.07849486e+00  4.67543229e+00
  5.52166752e+00  1.07849486e+00  4.67543229e+00  5.52166752e+00  1.07849486e+00
  4.67543229e+00  5.52166752e+00  1.07849486e+00  4.67543229e+00  5.52166752e+00
  1.07849486e+00 -3.04939918e+00  3.09898016e+00 -1.80196284e+00 -3.04939918e+00
  3.09898016e+00 -1.80196284e+00 -3.04939918e+00  3.09898016e+00 -1.80196284e+00
 -3.04939918e+00  3.09898016e+00 -1.80196284e+00 -3.04939918e+00  3.09898016e+00
 -1.80196284e+00 -3.04939918e+00  3.09898016e+00 -1.80196284e+00 -3.04939918e+00
  3.09898016e+00 -1.80196284e+00 -3.04939918e+00  3.09898016e+00 -1.80196284e+00
  4.53988395e-01  6.02460663e+00 -9.33500752e-01  4.53988395e-01  6.02460663e+00
 -9.33500752e-01  5.26624897e+00  1.04101571e+00  2.36860616e+00  5.26624897e+00
  1.04101571e+00  2.36860616e+00  1.11139340e-01 -2.86323218e+00 -3.68561098e+00
  1.11139340e-01 -2.86323218e+00 -3.68561098e+00  1.11139340e-01 -2.86323218e+00
 -3.68561098e+00  1.11139340e-01 -2.86323218e+00 -3.68561098e+00  1.11139340e-01
 -2.86323218e+00 -3.68561098e+00  1.11139340e-01 -2.86323218e+00 -3.68561098e+00
  1.11139340e-01 -2.86323218e+00 -3.68561098e+00  1.11139340e-01 -2.86323218e+00
 -3.68561098e+00 -2.58351819e+00 -1.38494012e-01  2.84547905e+00 -2.58351819e+00
 -1.38494012e-01  2.84547905e+00 -2.58351819e+00 -1.38494012e-01  2.84547905e+00
 -2.58351819e+00 -1.38494012e-01  2.84547905e+00 -2.58351819e+00 -1.38494012e-01
  2.84547905e+00 -2.58351819e+00 -1.38494012e-01  2.84547905e+00 -2.58351819e+00
 -1.38494012e-01  2.84547905e+00 -2.58351819e+00 -1.38494012e-01  2.84547905e+00
 -2.76016562e+00 -2.57599609e+00  4.29971695e+00 -2.76016562e+00 -2.57599609e+00
  4.29971695e+00 -2.76016562e+00 -2.57599609e+00  4.29971695e+00 -2.76016562e+00
 -2.57599609e+00  4.29971695e+00 -2.76016562e+00 -2.57599609e+00  4.29971695e+00
 -2.76016562e+00 -2.57599609e+00  4.29971695e+00 -2.76016562e+00 -2.57599609e+00
  4.29971695e+00 -2.76016562e+00 -2.57599609e+00  4.29971695e+00 -4.45411367e+00
  4.04890722e-01  2.14708889e+00 -4.45411367e+00  4.04890722e-01  2.14708889e+00
 -1.94587668e+00  1.37800003e+00  4.11723313e+00 -1.94587668e+00  1.37800003e+00
  4.11723313e+00 -4.93129547e+00 -3.79928332e+00  4.71282910e+00 -4.93129547e+00
 -3.79928332e+00  4.71282910e+00 -4.93129547e+00 -3.79928332e+00  4.71282910e+00
 -4.93129547e+00 -3.79928332e+00  4.71282910e+00 -4.93129547e+00 -3.79928332e+00
  4.71282910e+00 -4.93129547e+00 -3.79928332e+00  4.71282910e+00 -4.93129547e+00
 -3.79928332e+00  4.71282910e+00 -4.93129547e+00 -3.79928332e+00  4.71282910e+00
 -3.49840143e+00 -1.68409316e+00 -2.11579309e+00 -3.49840143e+00 -1.68409316e+00
 -2.11579309e+00 -1.87699794e+00 -3.96935737e+00 -3.15517753e-01 -1.87699794e+00
 -3.96935737e+00 -3.15517753e-01 -1.01141864e+00 -3.32460526e+00  5.08162485e+00
 -1.01141864e+00 -3.32460526e+00  5.08162485e+00 -6.72194511e+00 -3.12439795e+00
  3.95682687e+00 -6.72194511e+00 -3.12439795e+00  3.95682687e+00 -4.99387080e+00
 -5.51881864e+00  5.83482030e+00 -4.99387080e+00 -5.51881864e+00  5.83482030e+00
  5.47759698e-01 -6.44423246e-01 -5.51024227e+00  5.47759698e-01 -6.44423246e-01
 -5.51024227e+00  5.47759698e-01 -6.44423246e-01 -5.51024227e+00  5.47759698e-01
 -6.44423246e-01 -5.51024227e+00  5.47759698e-01 -6.44423246e-01 -5.51024227e+00
  5.47759698e-01 -6.44423246e-01 -5.51024227e+00  5.47759698e-01 -6.44423246e-01
 -5.51024227e+00  5.47759698e-01 -6.44423246e-01 -5.51024227e+00 -1.24517355e+00
  9.77800746e-02 -6.23892780e+00 -1.24517355e+00  9.77800746e-02 -6.23892780e+00
  1.68914447e+00 -1.26119695e+00 -7.12649308e+00  1.68914447e+00 -1.26119695e+00
 -7.12649308e+00  1.56558874e+00  9.30744766e-01 -4.62795762e+00  1.56558874e+00
  9.30744766e-01 -4.62795762e+00 -1.00699662e+00 -5.13196154e+00 -5.12019306e+00
 -1.00699662e+00 -5.13196154e+00 -5.12019306e+00 -1.00699662e+00 -5.13196154e+00
 -5.12019306e+00 -1.00699662e+00 -5.13196154e+00 -5.12019306e+00 -1.00699662e+00
 -5.13196154e+00 -5.12019306e+00 -1.00699662e+00 -5.13196154e+00 -5.12019306e+00
 -1.00699662e+00 -5.13196154e+00 -5.12019306e+00 -1.00699662e+00 -5.13196154e+00
 -5.12019306e+00  1.95288758e+00 -3.45707734e+00 -2.93317620e+00  1.95288758e+00
 -3.45707734e+00 -2.93317620e+00 -2.85741460e+00 -4.65950644e+00 -5.93306220e+00
 -2.85741460e+00 -4.65950644e+00 -5.93306220e+00 -1.25920341e+00 -6.76731406e+00
 -3.87253810e+00 -1.25920341e+00 -6.76731406e+00 -3.87253810e+00  2.34965031e-01
 -5.70729869e+00 -6.67593512e+00  2.34965031e-01 -5.70729869e+00 -6.67593512e+00
Total Energy                               R     -7.640480259019388e+02
Alpha Orbital Energies                     R   N=         336
 -1.91701458e+01 -1.91696524e+01 -1.91693324e+01 -1.44207889e+01 -1.44206897e+01
 -1.03724137e+01 -1.03408631e+01 -1.03402741e+01 -1.02557691e+01 -1.02286399e+01
 -1.02106295e+01 -1.02031910e+01 -1.02029654e+01 -1.02003784e+01 -1.01850311e+01
 -1.01829435e+01 -1.11286568e+00 -1.08597985e+00 -1.08282559e+00 -9.88591535e-01