Generated by Psi4
     FORCE                           RHF                       TESTBAS
Number of atoms                            I               31
Charge                                     I                0
Multiplicity                               I                1
Number of electrons                        I              114
Number of alpha electrons                  I               57
Number of beta electrons                   I               57
Number of basis functions                  I              317
Number of independent functions            I              317
Atomic numbers                             I   N=          31
           8           6           6           6           7           6
           7           6           8           8           1           1
           6           6           6           1           1           1
           1           1           1           1           6           1
           1           6           1           1           1           1
           1
Nuclear charges                            R   N=          31
  8.00000000e+00  6.00000000e+00  6.00000000e+00  6.00000000e+00  7.00000000e+00
  6.00000000e+00  7.00000000e+00  6.00000000e+00  8.00000000e+00  8.00000000e+00
  1.00000000e+00  1.00000000e+00  6.00000000e+00  6.00000000e+00  6.00000000e+00
  1.00000000e+00  1.00000000e+00  1.00000000e+00  1.00000000e+00  1.00000000e+00
  1.00000000e+00  1.00000000e+00  6.00000000e+00  1.00000000e+00  1.00000000e+00
  6.00000000e+00  1.00000000e+00  1.00000000e+00  1.00000000e+00  1.00000000e+00
  1.00000000e+00
Current cartesian coordinates              R   N=          93
  3.18698837e+00 -3.06943003e+00  9.96826530e-01 -8.92508577e-01 -2.86808186e+00
 -2.61766147e+00 -2.36717342e-01 -6.41090897e-01 -8.36161336e-01  2.39623519e+00
 -1.02307437e+00  2.98117228e-01  3.86752628e+00  1.13228847e+00  6.44978705e-01
  3.46005453e+00  3.52023817e+00 -3.64027104e-01  1.24659745e+00  3.74351221e+00
 -1.75584375e+00 -5.24755473e-01  1.86771200e+00 -2.25988639e+00  4.92986100e+00
  5.26476081e+00 -7.28289316e-02 -2.28512505e+00  2.30008728e+00 -3.67824235e+00
  9.68954813e-01  5.44484484e+00 -2.60070102e+00  5.55949158e+00  8.86820803e-01
  1.51838051e+00  7.92222675e-01 -3.06444621e+00 -4.96812864e+00 -2.18874601e+00
 -4.35155762e-01  1.41418326e+00 -2.49908236e+00 -2.78807376e+00  3.08567991e+00
 -3.99662209e+00  6.02970220e-02  5.36447757e-01 -1.64500021e+00  1.17708529e+00
  2.60765455e+00 -2.86882634e+00 -2.64341384e+00 -3.18727467e+00 -7.42618795e-01
 -4.61180392e+00 -1.52186420e+00  6.40052682e-01 -1.38280727e+00 -6.16694615e+00
  2.20277833e-01 -4.69217526e+00 -6.11301231e+00  2.78200484e+00 -3.33937943e+00
 -4.46030625e+00 -4.22481516e+00 -2.31209023e+00  5.38213511e+00 -6.48066719e-01
 -3.42708756e+00  3.75782382e+00 -3.28694137e+00 -4.34694609e+00  1.96656105e+00
 -6.98825147e+00 -1.72283784e+00  4.72897764e+00 -3.43533973e+00 -7.65544130e-01
  6.52502714e+00 -4.16420610e+00 -4.00173169e+00  6.58571716e+00 -7.18382029e+00
  5.25180498e-02  3.67885595e+00 -8.13119026e+00 -1.54919993e+00  6.44833372e+00
 -7.81906567e+00 -3.23234093e+00  3.57311744e+00
Integer atomic weights                     I   N=          31
          15          12          12          12          14          12
          14          12          15          15           1           1
          12          12          12           1           1           1
           1           1           1           1          12           1
           1          12           1           1           1           1
           1
Real atomic weights                        R   N=          31
  1.59949146e+01  1.20000000e+01  1.20000000e+01  1.20000000e+01  1.40030740e+01
  1.20000000e+01  1.40030740e+01  1.20000000e+01  1.59949146e+01  1.59949146e+01
  1.00782503e+00  1.00782503e+00  1.20000000e+01  1.20000000e+01  1.20000000e+01
  1.00782503e+00  1.00782503e+00  1.00782503e+00  1.00782503e+00  1.00782503e+00
  1.00782503e+00  1.00782503e+00  1.20000000e+01  1.00782503e+00  1.00782503e+00
  1.20000000e+01  1.00782503e+00  1.00782503e+00  1.00782503e+00  1.00782503e+00
  1.00782503e+00
Number of primitive shells                 I              319
Number of contracted shells                I              152
Pure/Cartesian d shells                    I                1
Pure/Cartesian f shells                    I                1
Highest angular momentum                   I                2
Largest degree of contraction              I                6
Shell types                                I   N=         152
           0           0           1           0           1           2
           0           1           0           0           1           0
           1           2           0           1           0           0
           1           0           1           2           0           1
           0           0           1           0           1           2
           0           1           0           0           1           0
           1           2           0           1           0           0
           1           0           1           2           0           1
           0           0           1           0           1           2
           0           1           0           0           1           0
           1           2           0           1           0           0
           1           0           1           2           0           1
           0           0           1           0           1           2
           0           1           0           0           0           0
           0           0           1           0           1           2
           0           1           0           0           1           0
           1           2           0           1           0           0
           1           0           1           2           0           1
           0           0           0           0           0           0
           0           0           0           0           0           0
           0           0           0           0           1           0
           1           2           0           1           0           0
           0           0           0           0           1           0
           1           2           0           1           0           0
           0           0           0           0           0           0
           0           0
Number of primitives per shell             I   N=         152
           6           3           3           1           1           1
           1           1           6           3           3           1
           1           1           1           1           6           3
           3           1           1           1           1           1
           6           3           3           1           1           1
           1           1           6           3           3           1
           1           1           1           1           6           3
           3           1           1           1           1           1
           6           3           3           1           1           1
           1           1           6           3           3           1
           1           1           1           1           6           3
           3           1           1           1           1           1
           6           3           3           1           1           1
           1           1           3           1           3           1
           6           3           3           1           1           1
           1           1           6           3           3           1
           1           1           1           1           6           3
           3           1           1           1           1           1
           3           1           3           1           3           1
           3           1           3           1           3           1
           3           1           6           3           3           1
           1           1           1           1           3           1
           3           1           6           3           3           1
           1           1           1           1           3           1
           3           1           3           1           3           1
           3           1
Shell to atom map                          I   N=         152
           1           1           1           1           1           1
           1           1           2           2           2           2
           2           2           2           2           3           3
           3           3           3           3           3           3
           4           4           4           4           4           4
           4           4           5           5           5           5
           5           5           5           5           6           6
           6           6           6           6           6           6
           7           7           7           7           7           7
           7           7           8           8           8           8
           8           8           8           8           9           9
           9           9           9           9           9           9
          10          10          10          10          10          10
          10          10          11          11          12          12
          13          13          13          13          13          13
          13          13          14          14          14          14
          14          14          14          14          15          15
          15          15          15          15          15          15
          16          16          17          17          18          18
          19          19          20          20          21          21
          22          22          23          23          23          23
          23          23          23          23          24          24
          25          25          26          26          26          26
          26          26          26          26          27          27
          28          28          29          29          30          30
          31          31
Primitive exponents                        R   N=         319
  5.48467170e+03  8.25234950e+02  1.88046960e+02  5.29645000e+01  1.68975700e+01
  5.79963530e+00  1.55396160e+01  3.59993360e+00  1.01376180e+00  1.55396160e+01
  3.59993360e+00  1.01376180e+00  2.70005800e-01  2.70005800e-01  8.00000000e-01
  8.45000000e-02  8.45000000e-02  3.04752490e+03  4.57369510e+02  1.03948690e+02
  2.92101550e+01  9.28666300e+00  3.16392700e+00  7.86827240e+00  1.88128850e+00
  5.44249300e-01  7.86827240e+00  1.88128850e+00  5.44249300e-01  1.68714400e-01
  1.68714400e-01  8.00000000e-01  4.38000000e-02  4.38000000e-02  3.04752490e+03
  4.57369510e+02  1.03948690e+02  2.92101550e+01  9.28666300e+00  3.16392700e+00
  7.86827240e+00  1.88128850e+00  5.44249300e-01  7.86827240e+00  1.88128850e+00
  5.44249300e-01  1.68714400e-01  1.68714400e-01  8.00000000e-01  4.38000000e-02
  4.38000000e-02  3.04752490e+03  4.57369510e+02  1.03948690e+02  2.92101550e+01
  9.28666300e+00  3.16392700e+00  7.86827240e+00  1.88128850e+00  5.44249300e-01
  7.86827240e+00  1.88128850e+00  5.44249300e-01  1.68714400e-01  1.68714400e-01
  8.00000000e-01  4.38000000e-02  4.38000000e-02  4.17351100e+03  6.27457900e+02
  1.42902100e+02  4.02343300e+01  1.28202100e+01  4.39043700e+00  1.16263580e+01
  2.71628000e+00  7.72218000e-01  1.16263580e+01  2.71628000e+00  7.72218000e-01
  2.12031300e-01  2.12031300e-01  8.00000000e-01  6.39000000e-02  6.39000000e-02
  3.04752490e+03  4.57369510e+02  1.03948690e+02  2.92101550e+01  9.28666300e+00
  3.16392700e+00  7.86827240e+00  1.88128850e+00  5.44249300e-01  7.86827240e+00
  1.88128850e+00  5.44249300e-01  1.68714400e-01  1.68714400e-01  8.00000000e-01
  4.38000000e-02  4.38000000e-02  4.17351100e+03  6.27457900e+02  1.42902100e+02
  4.02343300e+01  1.28202100e+01  4.39043700e+00  1.16263580e+01  2.71628000e+00
  7.72218000e-01  1.16263580e+01  2.71628000e+00  7.72218000e-01  2.12031300e-01
  2.12031300e-01  8.00000000e-01  6.39000000e-02  6.39000000e-02  3.04752490e+03
  4.57369510e+02  1.03948690e+02  2.92101550e+01  9.28666300e+00  3.16392700e+00
  7.86827240e+00  1.88128850e+00  5.44249300e-01  7.86827240e+00  1.88128850e+00
  5.44249300e-01  1.68714400e-01  1.68714400e-01  8.00000000e-01  4.38000000e-02
  4.38000000e-02  5.48467170e+03  8.25234950e+02  1.88046960e+02  5.29645000e+01
  1.68975700e+01  5.79963530e+00  1.55396160e+01  3.59993360e+00  1.01376180e+00
  1.55396160e+01  3.59993360e+00  1.01376180e+00  2.70005800e-01  2.70005800e-01
  8.00000000e-01  8.45000000e-02  8.45000000e-02  5.48467170e+03  8.25234950e+02
  1.88046960e+02  5.29645000e+01  1.68975700e+01  5.79963530e+00  1.55396160e+01
  3.59993360e+00  1.01376180e+00  1.55396160e+01  3.59993360e+00  1.01376180e+00
  2.70005800e-01  2.70005800e-01  8.00000000e-01  8.45000000e-02  8.45000000e-02
  1.87311370e+01  2.82539370e+00  6.40121700e-01  1.61277800e-01  1.87311370e+01
  2.82539370e+00  6.40121700e-01  1.61277800e-01  3.04752490e+03  4.57369510e+02
  1.03948690e+02  2.92101550e+01  9.28666300e+00  3.16392700e+00  7.86827240e+00
  1.88128850e+00  5.44249300e-01  7.86827240e+00  1.88128850e+00  5.44249300e-01
  1.68714400e-01  1.68714400e-01  8.00000000e-01  4.38000000e-02  4.38000000e-02
  3.04752490e+03  4.57369510e+02  1.03948690e+02  2.92101550e+01  9.28666300e+00
  3.16392700e+00  7.86827240e+00  1.88128850e+00  5.44249300e-01  7.86827240e+00
  1.88128850e+00  5.44249300e-01  1.68714400e-01  1.68714400e-01  8.00000000e-01
  4.38000000e-02  4.38000000e-02  3.04752490e+03  4.57369510e+02  1.03948690e+02
  2.92101550e+01  9.28666300e+00  3.16392700e+00  7.86827240e+00  1.88128850e+00
  5.44249300e-01  7.86827240e+00  1.88128850e+00  5.44249300e-01  1.68714400e-01
  1.68714400e-01  8.00000000e-01  4.38000000e-02  4.38000000e-02  1.87311370e+01
  2.82539370e+00  6.40121700e-01  1.61277800e-01  1.87311370e+01  2.82539370e+00
  6.40121700e-01  1.61277800e-01  1.87311370e+01  2.82539370e+00  6.40121700e-01
  1.61277800e-01  1.87311370e+01  2.82539370e+00  6.40121700e-01  1.61277800e-01
  1.87311370e+01  2.82539370e+00  6.40121700e-01  1.61277800e-01  1.87311370e+01
  2.82539370e+00  6.40121700e-01  1.61277800e-01  1.87311370e+01  2.82539370e+00
  6.40121700e-01  1.61277800e-01  3.04752490e+03  4.57369510e+02  1.03948690e+02
  2.92101550e+01  9.28666300e+00  3.16392700e+00  7.86827240e+00  1.88128850e+00
  5.44249300e-01  7.86827240e+00  1.88128850e+00  5.44249300e-01  1.68714400e-01
  1.68714400e-01  8.00000000e-01  4.38000000e-02  4.38000000e-02  1.87311370e+01
  2.82539370e+00  6.40121700e-01  1.61277800e-01  1.87311370e+01  2.82539370e+00
  6.40121700e-01  1.61277800e-01  3.04752490e+03  4.57369510e+02  1.03948690e+02
  2.92101550e+01  9.28666300e+00  3.16392700e+00  7.86827240e+00  1.88128850e+00
  5.44249300e-01  7.86827240e+00  1.88128850e+00  5.44249300e-01  1.68714400e-01
  1.68714400e-01  8.00000000e-01  4.38000000e-02  4.38000000e-02  1.87311370e+01
  2.82539370e+00  6.40121700e-01  1.61277800e-01  1.87311370e+01  2.82539370e+00
  6.40121700e-01  1.61277800e-01  1.87311370e+01  2.82539370e+00  6.40121700e-01
  1.61277800e-01  1.87311370e+01  2.82539370e+00  6.40121700e-01  1.61277800e-01
  1.87311370e+01  2.82539370e+00  6.40121700e-01  1.61277800e-01
Contraction coefficients                   R   N=         319
  1.83109981e-03  1.39500985e-02  6.84450927e-02  2.32714275e-01  4.70192950e-01
  3.58520862e-01 -1.10777504e-01 -1.48026305e-01  1.13076704e+00  7.08742995e-02
  3.39752798e-01  7.27158595e-01  1.00000000e+00  1.00000000e+00  1.00000000e+00
  1.00000000e+00  1.00000000e+00  1.83470016e-03  1.40373012e-02  6.88426061e-02
  2.32184421e-01  4.67941342e-01  3.62312032e-01 -1.19332409e-01 -1.60854212e-01
  1.14345648e+00  6.89990956e-02  3.16423980e-01  7.44308252e-01  1.00000000e+00
  1.00000000e+00  1.00000000e+00  1.00000000e+00  1.00000000e+00  1.83470016e-03
  1.40373012e-02  6.88426061e-02  2.32184421e-01  4.67941342e-01  3.62312032e-01
 -1.19332409e-01 -1.60854212e-01  1.14345648e+00  6.89990956e-02  3.16423980e-01
  7.44308252e-01  1.00000000e+00  1.00000000e+00  1.00000000e+00  1.00000000e+00
  1.00000000e+00  1.83470016e-03  1.40373012e-02  6.88426061e-02  2.32184421e-01
  4.67941342e-01  3.62312032e-01 -1.19332409e-01 -1.60854212e-01  1.14345648e+00
  6.89990956e-02  3.16423980e-01  7.44308252e-01  1.00000000e+00  1.00000000e+00
  1.00000000e+00  1.00000000e+00  1.00000000e+00  1.83479944e-03  1.39949958e-02
  6.85869792e-02  2.32240930e-01  4.69069858e-01  3.60454891e-01 -1.14961023e-01
 -1.69118034e-01  1.14585223e+00  6.75800232e-02  3.23907111e-01  7.40895255e-01
  1.00000000e+00  1.00000000e+00  1.00000000e+00  1.00000000e+00  1.00000000e+00
  1.83470016e-03  1.40373012e-02  6.88426061e-02  2.32184421e-01  4.67941342e-01
  3.62312032e-01 -1.19332409e-01 -1.60854212e-01  1.14345648e+00  6.89990956e-02
  3.16423980e-01  7.44308252e-01  1.00000000e+00  1.00000000e+00  1.00000000e+00
  1.00000000e+00  1.00000000e+00  1.83479944e-03  1.39949958e-02  6.85869792e-02
  2.32240930e-01  4.69069858e-01  3.60454891e-01 -1.14961023e-01 -1.69118034e-01
  1.14585223e+00  6.75800232e-02  3.23907111e-01  7.40895255e-01  1.00000000e+00
  1.00000000e+00  1.00000000e+00  1.00000000e+00  1.00000000e+00  1.83470016e-03
  1.40373012e-02  6.88426061e-02  2.32184421e-01  4.67941342e-01  3.62312032e-01
 -1.19332409e-01 -1.60854212e-01  1.14345648e+00  6.89990956e-02  3.16423980e-01
  7.44308252e-01  1.00000000e+00  1.00000000e+00  1.00000000e+00  1.00000000e+00
  1.00000000e+00  1.83109981e-03  1.39500985e-02  6.84450927e-02  2.32714275e-01
  4.70192950e-01  3.58520862e-01 -1.10777504e-01 -1.48026305e-01  1.13076704e+00
  7.08742995e-02  3.39752798e-01  7.27158595e-01  1.00000000e+00  1.00000000e+00
  1.00000000e+00  1.00000000e+00  1.00000000e+00  1.83109981e-03  1.39500985e-02
  6.84450927e-02  2.32714275e-01  4.70192950e-01  3.58520862e-01 -1.10777504e-01
 -1.48026305e-01  1.13076704e+00  7.08742995e-02  3.39752798e-01  7.27158595e-01
  1.00000000e+00  1.00000000e+00  1.00000000e+00  1.00000000e+00  1.00000000e+00
  3.34945995e-02  2.34726947e-01  8.13757318e-01  1.00000000e+00  3.34945995e-02
  2.34726947e-01  8.13757318e-01  1.00000000e+00  1.83470016e-03  1.40373012e-02
  6.88426061e-02  2.32184421e-01  4.67941342e-01  3.62312032e-01 -1.19332409e-01
 -1.60854212e-01  1.14345648e+00  6.89990956e-02  3.16423980e-01  7.44308252e-01
  1.00000000e+00  1.00000000e+00  1.00000000e+00  1.00000000e+00  1.00000000e+00
  1.83470016e-03  1.40373012e-02  6.88426061e-02  2.32184421e-01  4.67941342e-01
  3.62312032e-01 -1.19332409e-01 -1.60854212e-01  1.14345648e+00  6.89990956e-02
  3.16423980e-01  7.44308252e-01  1.00000000e+00  1.00000000e+00  1.00000000e+00
  1.00000000e+00  1.00000000e+00  1.83470016e-03  1.40373012e-02  6.88426061e-02
  2.32184421e-01  4.67941342e-01  3.62312032e-01 -1.19332409e-01 -1.60854212e-01
  1.14345648e+00  6.89990956e-02  3.16423980e-01  7.44308252e-01  1.00000000e+00
  1.00000000e+00  1.00000000e+00  1.00000000e+00  1.00000000e+00  3.34945995e-02
  2.34726947e-01  8.13757318e-01  1.00000000e+00  3.34945995e-02  2.34726947e-01
  8.13757318e-01  1.00000000e+00  3.34945995e-02  2.34726947e-01  8.13757318e-01
  1.00000000e+00  3.34945995e-02  2.34726947e-01  8.13757318e-01  1.00000000e+00
  3.34945995e-02  2.34726947e-01  8.13757318e-01  1.00000000e+00  3.34945995e-02
  2.34726947e-01  8.13757318e-01  1.00000000e+00  3.34945995e-02  2.34726947e-01
  8.13757318e-01  1.00000000e+00  1.83470016e-03  1.40373012e-02  6.88426061e-02
  2.32184421e-01  4.67941342e-01  3.62312032e-01 -1.19332409e-01 -1.60854212e-01
  1.14345648e+00  6.89990956e-02  3.16423980e-01  7.44308252e-01  1.00000000e+00
  1.00000000e+00  1.00000000e+00  1.00000000e+00  1.00000000e+00  3.34945995e-02
  2.34726947e-01  8.13757318e-01  1.00000000e+00  3.34945995e-02  2.34726947e-01
  8.13757318e-01  1.00000000e+00  1.83470016e-03  1.40373012e-02  6.88426061e-02
  2.32184421e-01  4.67941342e-01  3.62312032e-01 -1.19332409e-01 -1.60854212e-01
  1.14345648e+00  6.89990956e-02  3.16423980e-01  7.44308252e-01  1.00000000e+00
  1.00000000e+00  1.00000000e+00  1.00000000e+00  1.00000000e+00  3.34945995e-02
  2.34726947e-01  8.13757318e-01  1.00000000e+00  3.34945995e-02  2.34726947e-01
  8.13757318e-01  1.00000000e+00  3.34945995e-02  2.34726947e-01  8.13757318e-01
  1.00000000e+00  3.34945995e-02  2.34726947e-01  8.13757318e-01  1.00000000e+00
  3.34945995e-02  2.34726947e-01  8.13757318e-01  1.00000000e+00
Coordinates of each shell                  R   N=         456
  3.18698837e+00 -3.06943003e+00  9.96826530e-01  3.18698837e+00 -3.06943003e+00
  9.96826530e-01  3.18698837e+00 -3.06943003e+00  9.96826530e-01  3.18698837e+00
 -3.06943003e+00  9.96826530e-01  3.18698837e+00 -3.06943003e+00  9.96826530e-01
  3.18698837e+00 -3.06943003e+00  9.96826530e-01  3.18698837e+00 -3.06943003e+00
  9.96826530e-01  3.18698837e+00 -3.06943003e+00  9.96826530e-01 -8.92508577e-01
 -2.86808186e+00 -2.61766147e+00 -8.92508577e-01 -2.86808186e+00 -2.61766147e+00
 -8.92508577e-01 -2.86808186e+00 -2.61766147e+00 -8.92508577e-01 -2.86808186e+00
 -2.61766147e+00 -8.92508577e-01 -2.86808186e+00 -2.61766147e+00 -8.92508577e-01
 -2.86808186e+00 -2.61766147e+00 -8.92508577e-01 -2.86808186e+00 -2.61766147e+00
 -8.92508577e-01 -2.86808186e+00 -2.61766147e+00 -2.36717342e-01 -6.41090897e-01
 -8.36161336e-01 -2.36717342e-01 -6.41090897e-01 -8.36161336e-01 -2.36717342e-01
 -6.41090897e-01 -8.36161336e-01 -2.36717342e-01 -6.41090897e-01 -8.36161336e-01
 -2.36717342e-01 -6.41090897e-01 -8.36161336e-01 -2.36717342e-01 -6.41090897e-01
 -8.36161336e-01 -2.36717342e-01 -6.41090897e-01 -8.36161336e-01 -2.36717342e-01
 -6.41090897e-01 -8.36161336e-01  2.39623519e+00 -1.02307437e+00  2.98117228e-01
  2.39623519e+00 -1.02307437e+00  2.98117228e-01  2.39623519e+00 -1.02307437e+00
  2.98117228e-01  2.39623519e+00 -1.02307437e+00  2.98117228e-01  2.39623519e+00
 -1.02307437e+00  2.98117228e-01  2.39623519e+00 -1.02307437e+00  2.98117228e-01
  2.39623519e+00 -1.02307437e+00  2.98117228e-01  2.39623519e+00 -1.02307437e+00
  2.98117228e-01  3.86752628e+00  1.13228847e+00  6.44978705e-01  3.86752628e+00
  1.13228847e+00  6.44978705e-01  3.86752628e+00  1.13228847e+00  6.44978705e-01
  3.86752628e+00  1.13228847e+00  6.44978705e-01  3.86752628e+00  1.13228847e+00
  6.44978705e-01  3.86752628e+00  1.13228847e+00  6.44978705e-01  3.86752628e+00
  1.13228847e+00  6.44978705e-01  3.86752628e+00  1.13228847e+00  6.44978705e-01
  3.46005453e+00  3.52023817e+00 -3.64027104e-01  3.46005453e+00  3.52023817e+00
 -3.64027104e-01  3.46005453e+00  3.52023817e+00 -3.64027104e-01  3.46005453e+00
  3.52023817e+00 -3.64027104e-01  3.46005453e+00  3.52023817e+00 -3.64027104e-01
  3.46005453e+00  3.52023817e+00 -3.64027104e-01  3.46005453e+00  3.52023817e+00
 -3.64027104e-01  3.46005453e+00  3.52023817e+00 -3.64027104e-01  1.24659745e+00
  3.74351221e+00 -1.75584375e+00  1.24659745e+00  3.74351221e+00 -1.75584375e+00
  1.24659745e+00  3.74351221e+00 -1.75584375e+00  1.24659745e+00  3.74351221e+00
 -1.75584375e+00  1.24659745e+00  3.74351221e+00 -1.75584375e+00  1.24659745e+00
  3.74351221e+00 -1.75584375e+00  1.24659745e+00  3.74351221e+00 -1.75584375e+00
  1.24659745e+00  3.74351221e+00 -1.75584375e+00 -5.24755473e-01  1.86771200e+00
 -2.25988639e+00 -5.24755473e-01  1.86771200e+00 -2.25988639e+00 -5.24755473e-01
  1.86771200e+00 -2.25988639e+00 -5.24755473e-01  1.86771200e+00 -2.25988639e+00
 -5.24755473e-01  1.86771200e+00 -2.25988639e+00 -5.24755473e-01  1.86771200e+00
 -2.25988639e+00 -5.24755473e-01  1.86771200e+00 -2.25988639e+00 -5.24755473e-01
  1.86771200e+00 -2.25988639e+00  4.92986100e+00  5.26476081e+00 -7.28289316e-02
  4.92986100e+00  5.26476081e+00 -7.28289316e-02  4.92986100e+00  5.26476081e+00
 -7.28289316e-02  4.92986100e+00  5.26476081e+00 -7.28289316e-02  4.92986100e+00
  5.26476081e+00 -7.28289316e-02  4.92986100e+00  5.26476081e+00 -7.28289316e-02
  4.92986100e+00  5.26476081e+00 -7.28289316e-02  4.92986100e+00  5.26476081e+00
 -7.28289316e-02 -2.28512505e+00  2.30008728e+00 -3.67824235e+00 -2.28512505e+00
  2.30008728e+00 -3.67824235e+00 -2.28512505e+00  2.30008728e+00 -3.67824235e+00
 -2.28512505e+00  2.30008728e+00 -3.67824235e+00 -2.28512505e+00  2.30008728e+00
 -3.67824235e+00 -2.28512505e+00  2.30008728e+00 -3.67824235e+00 -2.28512505e+00
  2.30008728e+00 -3.67824235e+00 -2.28512505e+00  2.30008728e+00 -3.67824235e+00
  9.68954813e-01  5.44484484e+00 -2.60070102e+00  9.68954813e-01  5.44484484e+00
 -2.60070102e+00  5.55949158e+00  8.86820803e-01  1.51838051e+00  5.55949158e+00
  8.86820803e-01  1.51838051e+00  7.92222675e-01 -3.06444621e+00 -4.96812864e+00
  7.92222675e-01 -3.06444621e+00 -4.96812864e+00  7.92222675e-01 -3.06444621e+00
 -4.96812864e+00  7.92222675e-01 -3.06444621e+00 -4.96812864e+00  7.92222675e-01
 -3.06444621e+00 -4.96812864e+00  7.92222675e-01 -3.06444621e+00 -4.96812864e+00
  7.92222675e-01 -3.06444621e+00 -4.96812864e+00  7.92222675e-01 -3.06444621e+00
 -4.96812864e+00 -2.18874601e+00 -4.35155762e-01  1.41418326e+00 -2.18874601e+00
 -4.35155762e-01  1.41418326e+00 -2.18874601e+00 -4.35155762e-01  1.41418326e+00
 -2.18874601e+00 -4.35155762e-01  1.41418326e+00 -2.18874601e+00 -4.35155762e-01
  1.41418326e+00 -2.18874601e+00 -4.35155762e-01  1.41418326e+00 -2.18874601e+00
 -4.35155762e-01  1.41418326e+00 -2.18874601e+00 -4.35155762e-01  1.41418326e+00
 -2.49908236e+00 -2.78807376e+00  3.08567991e+00 -2.49908236e+00 -2.78807376e+00
  3.08567991e+00 -2.49908236e+00 -2.78807376e+00  3.08567991e+00 -2.49908236e+00
 -2.78807376e+00  3.08567991e+00 -2.49908236e+00 -2.78807376e+00  3.08567991e+00
 -2.49908236e+00 -2.78807376e+00  3.08567991e+00 -2.49908236e+00 -2.78807376e+00
  3.08567991e+00 -2.49908236e+00 -2.78807376e+00  3.08567991e+00 -3.99662209e+00
  6.02970220e-02  5.36447757e-01 -3.99662209e+00  6.02970220e-02  5.36447757e-01
 -1.64500021e+00  1.17708529e+00  2.60765455e+00 -1.64500021e+00  1.17708529e+00
  2.60765455e+00 -2.86882634e+00 -2.64341384e+00 -3.18727467e+00 -2.86882634e+00
 -2.64341384e+00 -3.18727467e+00 -7.42618795e-01 -4.61180392e+00 -1.52186420e+00
 -7.42618795e-01 -4.61180392e+00 -1.52186420e+00  6.40052682e-01 -1.38280727e+00
 -6.16694615e+00  6.40052682e-01 -1.38280727e+00 -6.16694615e+00  2.20277833e-01
 -4.69217526e+00 -6.11301231e+00  2.20277833e-01 -4.69217526e+00 -6.11301231e+00
  2.78200484e+00 -3.33937943e+00 -4.46030625e+00  2.78200484e+00 -3.33937943e+00
 -4.46030625e+00 -4.22481516e+00 -2.31209023e+00  5.38213511e+00 -4.22481516e+00
 -2.31209023e+00  5.38213511e+00 -4.22481516e+00 -2.31209023e+00  5.38213511e+00
 -4.22481516e+00 -2.31209023e+00  5.38213511e+00 -4.22481516e+00 -2.31209023e+00
  5.38213511e+00 -4.22481516e+00 -2.31209023e+00  5.38213511e+00 -4.22481516e+00
 -2.31209023e+00  5.38213511e+00 -4.22481516e+00 -2.31209023e+00  5.38213511e+00
 -6.48066719e-01 -3.42708756e+00  3.75782382e+00 -6.48066719e-01 -3.42708756e+00
  3.75782382e+00 -3.28694137e+00 -4.34694609e+00  1.96656105e+00 -3.28694137e+00
 -4.34694609e+00  1.96656105e+00 -6.98825147e+00 -1.72283784e+00  4.72897764e+00
 -6.98825147e+00 -1.72283784e+00  4.72897764e+00 -6.98825147e+00 -1.72283784e+00
  4.72897764e+00 -6.98825147e+00 -1.72283784e+00  4.72897764e+00 -6.98825147e+00
 -1.72283784e+00  4.72897764e+00 -6.98825147e+00 -1.72283784e+00  4.72897764e+00
 -6.98825147e+00 -1.72283784e+00  4.72897764e+00 -6.98825147e+00 -1.72283784e+00
  4.72897764e+00 -3.43533973e+00 -7.65544130e-01  6.52502714e+00 -3.43533973e+00
 -7.65544130e-01  6.52502714e+00 -4.16420610e+00 -4.00173169e+00  6.58571716e+00
 -4.16420610e+00 -4.00173169e+00  6.58571716e+00 -7.18382029e+00  5.25180498e-02
  3.67885595e+00 -7.18382029e+00  5.25180498e-02  3.67885595e+00 -8.13119026e+00
 -1.54919993e+00  6.44833372e+00 -8.13119026e+00 -1.54919993e+00  6.44833372e+00
 -7.81906567e+00 -3.23234093e+00  3.57311744e+00 -7.81906567e+00 -3.23234093e+00
  3.57311744e+00
Total Energy                               R     -7.259697491267303e+02
Alpha Orbital Energies                     R   N=         317
 -1.91692974e+01 -1.91684962e+01 -1.91681892e+01 -1.44192065e+01 -1.44187241e+01
 -1.03709027e+01 -1.03387003e+01 -1.03384708e+01 -1.02516954e+01 -1.02206037e+01
 -1.02066157e+01 -1.01974456e+01 -1.01965545e+01 -1.01897851e+01 -1.01860646e+01
 -1.11126517e+00 -1.08439651e+00 -1.08130927e+00 -9.87005911e-01 -9.48056025e-01
 -8.55339971e-01 -8.02643632e-01 -7.58563816e-01 -7.25081467e-01 -6.97421531e-01
 -6.75216195e-01 -6.59458803e-01 -6.45586698e-01 -5.97450366e-01 -5.85759507e-01
 -5.70542919e-01 -5.22181194e-01 -5.13730585e-01 -4.84554509e-01 -4.82604917e-01
 -4.73092917e-01 -4.66587628e-01 -4.63319835e-01 -4.54265513e-01 -4.46451814e-01
 -4.41082783e-01 -4.20665951e-01 -4.15810790e-01 -4.02181541e-01 -3.98084969e-01
 -3.84232581e-01 -3.70814511e-01 -3.60849223e-01 -3.58637603e-01 -3.47552356e-01
 -3.40752411e-01 -3.37031034e-01 -3.28289433e-01 -3.17516410e-01 -3.16294532e-01
 -3.06018587e-01 -2.82530617e-01 -6.40592687e-02 -2.63444819e-02 -1.00356281e-02
  2.03687342e-03  8.29616758e-03  8.89448059e-03  2.09706328e-02  2.42031651e-02
  2.61548533e-02  3.37967112e-02  4.67237376e-02  4.83827123e-02  5.16820785e-02
  5.99025252e-02  6.08506989e-02  6.80922624e-02  6.93027664e-02  7.15331085e-02
  8.29525974e-02  8.57050376e-02  9.24220293e-02  9.78164457e-02  1.01073666e-01
  1.06802488e-01  1.09817787e-01  1.15530751e-01  1.18629185e-01  1.24608137e-01
  1.26539257e-01  1.28930190e-01  1.40582256e-01  1.44706528e-01  1.50445500e-01
  1.55118095e-01  1.58957991e-01  1.61317810e-01  1.68552565e-01  1.71455963e-01
  1.76457568e-01  1.83451826e-01  1.88032949e-01  1.90478243e-01  1.93202796e-01