Generated by Psi4
     FORCE                           RHF                       TESTBAS
Number of atoms                            I               26
Charge                                     I                0
Multiplicity                               I                1
Number of electrons                        I              104
Number of alpha electrons                  I               52
Number of beta electrons                   I               52
Number of basis functions                  I              290
Number of independent functions            I              290
Atomic numbers                             I   N=          26
           6           6           6           6           6           6
           6           6           1           1           1           1
           6           6           8           1           1           8
           8           8           1           1           1           1
           1           1
Nuclear charges                            R   N=          26
  6.00000000e+00  6.00000000e+00  6.00000000e+00  6.00000000e+00  6.00000000e+00
  6.00000000e+00  6.00000000e+00  6.00000000e+00  1.00000000e+00  1.00000000e+00
  1.00000000e+00  1.00000000e+00  6.00000000e+00  6.00000000e+00  8.00000000e+00
  1.00000000e+00  1.00000000e+00  8.00000000e+00  8.00000000e+00  8.00000000e+00
  1.00000000e+00  1.00000000e+00  1.00000000e+00  1.00000000e+00  1.00000000e+00
  1.00000000e+00
Current cartesian coordinates              R   N=          78
 -3.74503566e+00  8.90571421e-02  2.39882705e+00  1.14172187e+00  8.45297577e-01
  2.82717819e+00 -1.10295072e+00 -2.98196100e-01  1.27449842e+00  7.90107185e-01
  3.70347559e+00  3.28435261e+00  1.35910238e+00  4.78691138e+00  6.04287215e-01
 -2.63516419e+00  2.20150116e+00 -2.82790802e+00 -5.30338158e-01  7.91731549e-01
 -1.42186601e+00  1.92992086e+00  2.34595417e+00 -8.84940407e-01 -1.92726298e-01
  5.89748399e+00 -1.85777637e-01  3.04189363e+00  5.98673520e+00  6.19630036e-01
 -1.08124936e+00  4.20562042e+00  3.99962606e+00  2.18242705e+00  4.34994686e+00
  4.66823162e+00 -6.15015724e-01 -3.12989442e+00  9.80279846e-01  2.20237858e-01
 -1.54037899e+00 -2.95194939e+00  3.15110475e+00  7.93147105e-01  9.89686649e-01
  1.67213408e+00 -2.73891554e-01  4.47453593e+00  3.15864201e+00  2.55625252e+00
 -2.52619969e+00  9.26602811e-02 -3.69798813e+00 -1.47513200e+00  8.31147215e-01
 -1.64139935e+00 -5.13313696e+00 -8.02452802e-01 -4.74960176e+00  2.55584941e+00
 -4.24267803e+00  2.09050459e+00  2.51162807e+00 -3.82568691e+00 -7.16903253e-01
  4.30234588e+00 -5.19127558e+00 -8.57567668e-01  1.26035625e+00 -3.34045429e+00
  3.80796179e+00 -1.73795042e+00 -4.23902103e+00  9.54578718e-01 -3.22369634e+00
 -1.92631537e+00  2.89818597e+00 -4.64219102e+00
Integer atomic weights                     I   N=          26
          12          12          12          12          12          12
          12          12           1           1           1           1
          12          12          15           1           1          15
          15          15           1           1           1           1
           1           1
Real atomic weights                        R   N=          26
  1.20000000e+01  1.20000000e+01  1.20000000e+01  1.20000000e+01  1.20000000e+01
  1.20000000e+01  1.20000000e+01  1.20000000e+01  1.00782503e+00  1.00782503e+00
  1.00782503e+00  1.00782503e+00  1.20000000e+01  1.20000000e+01  1.59949146e+01
  1.00782503e+00  1.00782503e+00  1.59949146e+01  1.59949146e+01  1.59949146e+01
  1.00782503e+00  1.00782503e+00  1.00782503e+00  1.00782503e+00  1.00782503e+00
  1.00782503e+00
Number of primitive shells                 I              286
Number of contracted shells                I              136
Pure/Cartesian d shells                    I                1
Pure/Cartesian f shells                    I                1
Highest angular momentum                   I                2
Largest degree of contraction              I                6
Shell types                                I   N=         136
           0           0           1           0           1           2
           0           1           0           0           1           0
           1           2           0           1           0           0
           1           0           1           2           0           1
           0           0           1           0           1           2
           0           1           0           0           1           0
           1           2           0           1           0           0
           1           0           1           2           0           1
           0           0           1           0           1           2
           0           1           0           0           1           0
           1           2           0           1           0           0
           0           0           0           0           0           0
           0           0           1           0           1           2
           0           1           0           0           1           0
           1           2           0           1           0           0
           1           0           1           2           0           1
           0           0           0           0           0           0
           1           0           1           2           0           1
           0           0           1           0           1           2
           0           1           0           0           1           0
           1           2           0           1           0           0
           0           0           0           0           0           0
           0           0           0           0
Number of primitives per shell             I   N=         136
           6           3           3           1           1           1
           1           1           6           3           3           1
           1           1           1           1           6           3
           3           1           1           1           1           1
           6           3           3           1           1           1
           1           1           6           3           3           1
           1           1           1           1           6           3
           3           1           1           1           1           1
           6           3           3           1           1           1
           1           1           6           3           3           1
           1           1           1           1           3           1
           3           1           3           1           3           1
           6           3           3           1           1           1
           1           1           6           3           3           1
           1           1           1           1           6           3
           3           1           1           1           1           1
           3           1           3           1           6           3
           3           1           1           1           1           1
           6           3           3           1           1           1
           1           1           6           3           3           1
           1           1           1           1           3           1
           3           1           3           1           3           1
           3           1           3           1
Shell to atom map                          I   N=         136
           1           1           1           1           1           1
           1           1           2           2           2           2
           2           2           2           2           3           3
           3           3           3           3           3           3
           4           4           4           4           4           4
           4           4           5           5           5           5
           5           5           5           5           6           6
           6           6           6           6           6           6
           7           7           7           7           7           7
           7           7           8           8           8           8
           8           8           8           8           9           9
          10          10          11          11          12          12
          13          13          13          13          13          13
          13          13          14          14          14          14
          14          14          14          14          15          15
          15          15          15          15          15          15
          16          16          17          17          18          18
          18          18          18          18          18          18
          19          19          19          19          19          19
          19          19          20          20          20          20
          20          20          20          20          21          21
          22          22          23          23          24          24
          25          25          26          26
Primitive exponents                        R   N=         286
  3.04752490e+03  4.57369510e+02  1.03948690e+02  2.92101550e+01  9.28666300e+00
  3.16392700e+00  7.86827240e+00  1.88128850e+00  5.44249300e-01  7.86827240e+00
  1.88128850e+00  5.44249300e-01  1.68714400e-01  1.68714400e-01  8.00000000e-01
  4.38000000e-02  4.38000000e-02  3.04752490e+03  4.57369510e+02  1.03948690e+02
  2.92101550e+01  9.28666300e+00  3.16392700e+00  7.86827240e+00  1.88128850e+00
  5.44249300e-01  7.86827240e+00  1.88128850e+00  5.44249300e-01  1.68714400e-01
  1.68714400e-01  8.00000000e-01  4.38000000e-02  4.38000000e-02  3.04752490e+03
  4.57369510e+02  1.03948690e+02  2.92101550e+01  9.28666300e+00  3.16392700e+00
  7.86827240e+00  1.88128850e+00  5.44249300e-01  7.86827240e+00  1.88128850e+00
  5.44249300e-01  1.68714400e-01  1.68714400e-01  8.00000000e-01  4.38000000e-02
  4.38000000e-02  3.04752490e+03  4.57369510e+02  1.03948690e+02  2.92101550e+01
  9.28666300e+00  3.16392700e+00  7.86827240e+00  1.88128850e+00  5.44249300e-01
  7.86827240e+00  1.88128850e+00  5.44249300e-01  1.68714400e-01  1.68714400e-01
  8.00000000e-01  4.38000000e-02  4.38000000e-02  3.04752490e+03  4.57369510e+02
  1.03948690e+02  2.92101550e+01  9.28666300e+00  3.16392700e+00  7.86827240e+00
  1.88128850e+00  5.44249300e-01  7.86827240e+00  1.88128850e+00  5.44249300e-01
  1.68714400e-01  1.68714400e-01  8.00000000e-01  4.38000000e-02  4.38000000e-02
  3.04752490e+03  4.57369510e+02  1.03948690e+02  2.92101550e+01  9.28666300e+00
  3.16392700e+00  7.86827240e+00  1.88128850e+00  5.44249300e-01  7.86827240e+00
  1.88128850e+00  5.44249300e-01  1.68714400e-01  1.68714400e-01  8.00000000e-01
  4.38000000e-02  4.38000000e-02  3.04752490e+03  4.57369510e+02  1.03948690e+02
  2.92101550e+01  9.28666300e+00  3.16392700e+00  7.86827240e+00  1.88128850e+00
  5.44249300e-01  7.86827240e+00  1.88128850e+00  5.44249300e-01  1.68714400e-01
  1.68714400e-01  8.00000000e-01  4.38000000e-02  4.38000000e-02  3.04752490e+03
  4.57369510e+02  1.03948690e+02  2.92101550e+01  9.28666300e+00  3.16392700e+00
  7.86827240e+00  1.88128850e+00  5.44249300e-01  7.86827240e+00  1.88128850e+00
  5.44249300e-01  1.68714400e-01  1.68714400e-01  8.00000000e-01  4.38000000e-02
  4.38000000e-02  1.87311370e+01  2.82539370e+00  6.40121700e-01  1.61277800e-01
  1.87311370e+01  2.82539370e+00  6.40121700e-01  1.61277800e-01  1.87311370e+01
  2.82539370e+00  6.40121700e-01  1.61277800e-01  1.87311370e+01  2.82539370e+00
  6.40121700e-01  1.61277800e-01  3.04752490e+03  4.57369510e+02  1.03948690e+02
  2.92101550e+01  9.28666300e+00  3.16392700e+00  7.86827240e+00  1.88128850e+00
  5.44249300e-01  7.86827240e+00  1.88128850e+00  5.44249300e-01  1.68714400e-01
  1.68714400e-01  8.00000000e-01  4.38000000e-02  4.38000000e-02  3.04752490e+03
  4.57369510e+02  1.03948690e+02  2.92101550e+01  9.28666300e+00  3.16392700e+00
  7.86827240e+00  1.88128850e+00  5.44249300e-01  7.86827240e+00  1.88128850e+00
  5.44249300e-01  1.68714400e-01  1.68714400e-01  8.00000000e-01  4.38000000e-02
  4.38000000e-02  5.48467170e+03  8.25234950e+02  1.88046960e+02  5.29645000e+01
  1.68975700e+01  5.79963530e+00  1.55396160e+01  3.59993360e+00  1.01376180e+00
  1.55396160e+01  3.59993360e+00  1.01376180e+00  2.70005800e-01  2.70005800e-01
  8.00000000e-01  8.45000000e-02  8.45000000e-02  1.87311370e+01  2.82539370e+00
  6.40121700e-01  1.61277800e-01  1.87311370e+01  2.82539370e+00  6.40121700e-01
  1.61277800e-01  5.48467170e+03  8.25234950e+02  1.88046960e+02  5.29645000e+01
  1.68975700e+01  5.79963530e+00  1.55396160e+01  3.59993360e+00  1.01376180e+00
  1.55396160e+01  3.59993360e+00  1.01376180e+00  2.70005800e-01  2.70005800e-01
  8.00000000e-01  8.45000000e-02  8.45000000e-02  5.48467170e+03  8.25234950e+02
  1.88046960e+02  5.29645000e+01  1.68975700e+01  5.79963530e+00  1.55396160e+01
  3.59993360e+00  1.01376180e+00  1.55396160e+01  3.59993360e+00  1.01376180e+00
  2.70005800e-01  2.70005800e-01  8.00000000e-01  8.45000000e-02  8.45000000e-02
  5.48467170e+03  8.25234950e+02  1.88046960e+02  5.29645000e+01  1.68975700e+01
  5.79963530e+00  1.55396160e+01  3.59993360e+00  1.01376180e+00  1.55396160e+01
  3.59993360e+00  1.01376180e+00  2.70005800e-01  2.70005800e-01  8.00000000e-01
  8.45000000e-02  8.45000000e-02  1.87311370e+01  2.82539370e+00  6.40121700e-01
  1.61277800e-01  1.87311370e+01  2.82539370e+00  6.40121700e-01  1.61277800e-01
  1.87311370e+01  2.82539370e+00  6.40121700e-01  1.61277800e-01  1.87311370e+01
  2.82539370e+00  6.40121700e-01  1.61277800e-01  1.87311370e+01  2.82539370e+00
  6.40121700e-01  1.61277800e-01  1.87311370e+01  2.82539370e+00  6.40121700e-01
  1.61277800e-01
Contraction coefficients                   R   N=         286
  1.83470016e-03  1.40373012e-02  6.88426061e-02  2.32184421e-01  4.67941342e-01
  3.62312032e-01 -1.19332409e-01 -1.60854212e-01  1.14345648e+00  6.89990956e-02
  3.16423980e-01  7.44308252e-01  1.00000000e+00  1.00000000e+00  1.00000000e+00
  1.00000000e+00  1.00000000e+00  1.83470016e-03  1.40373012e-02  6.88426061e-02
  2.32184421e-01  4.67941342e-01  3.62312032e-01 -1.19332409e-01 -1.60854212e-01
  1.14345648e+00  6.89990956e-02  3.16423980e-01  7.44308252e-01  1.00000000e+00
  1.00000000e+00  1.00000000e+00  1.00000000e+00  1.00000000e+00  1.83470016e-03
  1.40373012e-02  6.88426061e-02  2.32184421e-01  4.67941342e-01  3.62312032e-01
 -1.19332409e-01 -1.60854212e-01  1.14345648e+00  6.89990956e-02  3.16423980e-01
  7.44308252e-01  1.00000000e+00  1.00000000e+00  1.00000000e+00  1.00000000e+00
  1.00000000e+00  1.83470016e-03  1.40373012e-02  6.88426061e-02  2.32184421e-01
  4.67941342e-01  3.62312032e-01 -1.19332409e-01 -1.60854212e-01  1.14345648e+00
  6.89990956e-02  3.16423980e-01  7.44308252e-01  1.00000000e+00  1.00000000e+00
  1.00000000e+00  1.00000000e+00  1.00000000e+00  1.83470016e-03  1.40373012e-02
  6.88426061e-02  2.32184421e-01  4.67941342e-01  3.62312032e-01 -1.19332409e-01
 -1.60854212e-01  1.14345648e+00  6.89990956e-02  3.16423980e-01  7.44308252e-01
  1.00000000e+00  1.00000000e+00  1.00000000e+00  1.00000000e+00  1.00000000e+00
  1.83470016e-03  1.40373012e-02  6.88426061e-02  2.32184421e-01  4.67941342e-01
  3.62312032e-01 -1.19332409e-01 -1.60854212e-01  1.14345648e+00  6.89990956e-02
  3.16423980e-01  7.44308252e-01  1.00000000e+00  1.00000000e+00  1.00000000e+00
  1.00000000e+00  1.00000000e+00  1.83470016e-03  1.40373012e-02  6.88426061e-02
  2.32184421e-01  4.67941342e-01  3.62312032e-01 -1.19332409e-01 -1.60854212e-01
  1.14345648e+00  6.89990956e-02  3.16423980e-01  7.44308252e-01  1.00000000e+00
  1.00000000e+00  1.00000000e+00  1.00000000e+00  1.00000000e+00  1.83470016e-03
  1.40373012e-02  6.88426061e-02  2.32184421e-01  4.67941342e-01  3.62312032e-01
 -1.19332409e-01 -1.60854212e-01  1.14345648e+00  6.89990956e-02  3.16423980e-01
  7.44308252e-01  1.00000000e+00  1.00000000e+00  1.00000000e+00  1.00000000e+00
  1.00000000e+00  3.34945995e-02  2.34726947e-01  8.13757318e-01  1.00000000e+00
  3.34945995e-02  2.34726947e-01  8.13757318e-01  1.00000000e+00  3.34945995e-02
  2.34726947e-01  8.13757318e-01  1.00000000e+00  3.34945995e-02  2.34726947e-01
  8.13757318e-01  1.00000000e+00  1.83470016e-03  1.40373012e-02  6.88426061e-02
  2.32184421e-01  4.67941342e-01  3.62312032e-01 -1.19332409e-01 -1.60854212e-01
  1.14345648e+00  6.89990956e-02  3.16423980e-01  7.44308252e-01  1.00000000e+00
  1.00000000e+00  1.00000000e+00  1.00000000e+00  1.00000000e+00  1.83470016e-03
  1.40373012e-02  6.88426061e-02  2.32184421e-01  4.67941342e-01  3.62312032e-01
 -1.19332409e-01 -1.60854212e-01  1.14345648e+00  6.89990956e-02  3.16423980e-01
  7.44308252e-01  1.00000000e+00  1.00000000e+00  1.00000000e+00  1.00000000e+00
  1.00000000e+00  1.83109981e-03  1.39500985e-02  6.84450927e-02  2.32714275e-01
  4.70192950e-01  3.58520862e-01 -1.10777504e-01 -1.48026305e-01  1.13076704e+00
  7.08742995e-02  3.39752798e-01  7.27158595e-01  1.00000000e+00  1.00000000e+00
  1.00000000e+00  1.00000000e+00  1.00000000e+00  3.34945995e-02  2.34726947e-01
  8.13757318e-01  1.00000000e+00  3.34945995e-02  2.34726947e-01  8.13757318e-01
  1.00000000e+00  1.83109981e-03  1.39500985e-02  6.84450927e-02  2.32714275e-01
  4.70192950e-01  3.58520862e-01 -1.10777504e-01 -1.48026305e-01  1.13076704e+00
  7.08742995e-02  3.39752798e-01  7.27158595e-01  1.00000000e+00  1.00000000e+00
  1.00000000e+00  1.00000000e+00  1.00000000e+00  1.83109981e-03  1.39500985e-02
  6.84450927e-02  2.32714275e-01  4.70192950e-01  3.58520862e-01 -1.10777504e-01
 -1.48026305e-01  1.13076704e+00  7.08742995e-02  3.39752798e-01  7.27158595e-01
  1.00000000e+00  1.00000000e+00  1.00000000e+00  1.00000000e+00  1.00000000e+00
  1.83109981e-03  1.39500985e-02  6.84450927e-02  2.32714275e-01  4.70192950e-01
  3.58520862e-01 -1.10777504e-01 -1.48026305e-01  1.13076704e+00  7.08742995e-02
  3.39752798e-01  7.27158595e-01  1.00000000e+00  1.00000000e+00  1.00000000e+00
  1.00000000e+00  1.00000000e+00  3.34945995e-02  2.34726947e-01  8.13757318e-01
  1.00000000e+00  3.34945995e-02  2.34726947e-01  8.13757318e-01  1.00000000e+00
  3.34945995e-02  2.34726947e-01  8.13757318e-01  1.00000000e+00  3.34945995e-02
  2.34726947e-01  8.13757318e-01  1.00000000e+00  3.34945995e-02  2.34726947e-01
  8.13757318e-01  1.00000000e+00  3.34945995e-02  2.34726947e-01  8.13757318e-01
  1.00000000e+00
Coordinates of each shell                  R   N=         408
 -3.74503566e+00  8.90571421e-02  2.39882705e+00 -3.74503566e+00  8.90571421e-02
  2.39882705e+00 -3.74503566e+00  8.90571421e-02  2.39882705e+00 -3.74503566e+00
  8.90571421e-02  2.39882705e+00 -3.74503566e+00  8.90571421e-02  2.39882705e+00
 -3.74503566e+00  8.90571421e-02  2.39882705e+00 -3.74503566e+00  8.90571421e-02
  2.39882705e+00 -3.74503566e+00  8.90571421e-02  2.39882705e+00  1.14172187e+00
  8.45297577e-01  2.82717819e+00  1.14172187e+00  8.45297577e-01  2.82717819e+00
  1.14172187e+00  8.45297577e-01  2.82717819e+00  1.14172187e+00  8.45297577e-01
  2.82717819e+00  1.14172187e+00  8.45297577e-01  2.82717819e+00  1.14172187e+00
  8.45297577e-01  2.82717819e+00  1.14172187e+00  8.45297577e-01  2.82717819e+00
  1.14172187e+00  8.45297577e-01  2.82717819e+00 -1.10295072e+00 -2.98196100e-01
  1.27449842e+00 -1.10295072e+00 -2.98196100e-01  1.27449842e+00 -1.10295072e+00
 -2.98196100e-01  1.27449842e+00 -1.10295072e+00 -2.98196100e-01  1.27449842e+00
 -1.10295072e+00 -2.98196100e-01  1.27449842e+00 -1.10295072e+00 -2.98196100e-01
  1.27449842e+00 -1.10295072e+00 -2.98196100e-01  1.27449842e+00 -1.10295072e+00
 -2.98196100e-01  1.27449842e+00  7.90107185e-01  3.70347559e+00  3.28435261e+00
  7.90107185e-01  3.70347559e+00  3.28435261e+00  7.90107185e-01  3.70347559e+00
  3.28435261e+00  7.90107185e-01  3.70347559e+00  3.28435261e+00  7.90107185e-01
  3.70347559e+00  3.28435261e+00  7.90107185e-01  3.70347559e+00  3.28435261e+00
  7.90107185e-01  3.70347559e+00  3.28435261e+00  7.90107185e-01  3.70347559e+00
  3.28435261e+00  1.35910238e+00  4.78691138e+00  6.04287215e-01  1.35910238e+00
  4.78691138e+00  6.04287215e-01  1.35910238e+00  4.78691138e+00  6.04287215e-01
  1.35910238e+00  4.78691138e+00  6.04287215e-01  1.35910238e+00  4.78691138e+00
  6.04287215e-01  1.35910238e+00  4.78691138e+00  6.04287215e-01  1.35910238e+00
  4.78691138e+00  6.04287215e-01  1.35910238e+00  4.78691138e+00  6.04287215e-01
 -2.63516419e+00  2.20150116e+00 -2.82790802e+00 -2.63516419e+00  2.20150116e+00
 -2.82790802e+00 -2.63516419e+00  2.20150116e+00 -2.82790802e+00 -2.63516419e+00
  2.20150116e+00 -2.82790802e+00 -2.63516419e+00  2.20150116e+00 -2.82790802e+00
 -2.63516419e+00  2.20150116e+00 -2.82790802e+00 -2.63516419e+00  2.20150116e+00
 -2.82790802e+00 -2.63516419e+00  2.20150116e+00 -2.82790802e+00 -5.30338158e-01
  7.91731549e-01 -1.42186601e+00 -5.30338158e-01  7.91731549e-01 -1.42186601e+00
 -5.30338158e-01  7.91731549e-01 -1.42186601e+00 -5.30338158e-01  7.91731549e-01
 -1.42186601e+00 -5.30338158e-01  7.91731549e-01 -1.42186601e+00 -5.30338158e-01
  7.91731549e-01 -1.42186601e+00 -5.30338158e-01  7.91731549e-01 -1.42186601e+00
 -5.30338158e-01  7.91731549e-01 -1.42186601e+00  1.92992086e+00  2.34595417e+00
 -8.84940407e-01  1.92992086e+00  2.34595417e+00 -8.84940407e-01  1.92992086e+00
  2.34595417e+00 -8.84940407e-01  1.92992086e+00  2.34595417e+00 -8.84940407e-01
  1.92992086e+00  2.34595417e+00 -8.84940407e-01  1.92992086e+00  2.34595417e+00
 -8.84940407e-01  1.92992086e+00  2.34595417e+00 -8.84940407e-01  1.92992086e+00
  2.34595417e+00 -8.84940407e-01 -1.92726298e-01  5.89748399e+00 -1.85777637e-01
 -1.92726298e-01  5.89748399e+00 -1.85777637e-01  3.04189363e+00  5.98673520e+00
  6.19630036e-01  3.04189363e+00  5.98673520e+00  6.19630036e-01 -1.08124936e+00
  4.20562042e+00  3.99962606e+00 -1.08124936e+00  4.20562042e+00  3.99962606e+00
  2.18242705e+00  4.34994686e+00  4.66823162e+00  2.18242705e+00  4.34994686e+00
  4.66823162e+00 -6.15015724e-01 -3.12989442e+00  9.80279846e-01 -6.15015724e-01
 -3.12989442e+00  9.80279846e-01 -6.15015724e-01 -3.12989442e+00  9.80279846e-01
 -6.15015724e-01 -3.12989442e+00  9.80279846e-01 -6.15015724e-01 -3.12989442e+00
  9.80279846e-01 -6.15015724e-01 -3.12989442e+00  9.80279846e-01 -6.15015724e-01
 -3.12989442e+00  9.80279846e-01 -6.15015724e-01 -3.12989442e+00  9.80279846e-01
  2.20237858e-01 -1.54037899e+00 -2.95194939e+00  2.20237858e-01 -1.54037899e+00
 -2.95194939e+00  2.20237858e-01 -1.54037899e+00 -2.95194939e+00  2.20237858e-01
 -1.54037899e+00 -2.95194939e+00  2.20237858e-01 -1.54037899e+00 -2.95194939e+00
  2.20237858e-01 -1.54037899e+00 -2.95194939e+00  2.20237858e-01 -1.54037899e+00
 -2.95194939e+00  2.20237858e-01 -1.54037899e+00 -2.95194939e+00  3.15110475e+00
  7.93147105e-01  9.89686649e-01  3.15110475e+00  7.93147105e-01  9.89686649e-01
  3.15110475e+00  7.93147105e-01  9.89686649e-01  3.15110475e+00  7.93147105e-01
  9.89686649e-01  3.15110475e+00  7.93147105e-01  9.89686649e-01  3.15110475e+00
  7.93147105e-01  9.89686649e-01  3.15110475e+00  7.93147105e-01  9.89686649e-01
  3.15110475e+00  7.93147105e-01  9.89686649e-01  1.67213408e+00 -2.73891554e-01
  4.47453593e+00  1.67213408e+00 -2.73891554e-01  4.47453593e+00  3.15864201e+00
  2.55625252e+00 -2.52619969e+00  3.15864201e+00  2.55625252e+00 -2.52619969e+00
  9.26602811e-02 -3.69798813e+00 -1.47513200e+00  9.26602811e-02 -3.69798813e+00
 -1.47513200e+00  9.26602811e-02 -3.69798813e+00 -1.47513200e+00  9.26602811e-02
 -3.69798813e+00 -1.47513200e+00  9.26602811e-02 -3.69798813e+00 -1.47513200e+00
  9.26602811e-02 -3.69798813e+00 -1.47513200e+00  9.26602811e-02 -3.69798813e+00
 -1.47513200e+00  9.26602811e-02 -3.69798813e+00 -1.47513200e+00  8.31147215e-01
 -1.64139935e+00 -5.13313696e+00  8.31147215e-01 -1.64139935e+00 -5.13313696e+00
  8.31147215e-01 -1.64139935e+00 -5.13313696e+00  8.31147215e-01 -1.64139935e+00
 -5.13313696e+00  8.31147215e-01 -1.64139935e+00 -5.13313696e+00  8.31147215e-01
 -1.64139935e+00 -5.13313696e+00  8.31147215e-01 -1.64139935e+00 -5.13313696e+00
  8.31147215e-01 -1.64139935e+00 -5.13313696e+00 -8.02452802e-01 -4.74960176e+00
  2.55584941e+00 -8.02452802e-01 -4.74960176e+00  2.55584941e+00 -8.02452802e-01
 -4.74960176e+00  2.55584941e+00 -8.02452802e-01 -4.74960176e+00  2.55584941e+00
 -8.02452802e-01 -4.74960176e+00  2.55584941e+00 -8.02452802e-01 -4.74960176e+00
  2.55584941e+00 -8.02452802e-01 -4.74960176e+00  2.55584941e+00 -8.02452802e-01
 -4.74960176e+00  2.55584941e+00 -4.24267803e+00  2.09050459e+00  2.51162807e+00
 -4.24267803e+00  2.09050459e+00  2.51162807e+00 -3.82568691e+00 -7.16903253e-01
  4.30234588e+00 -3.82568691e+00 -7.16903253e-01  4.30234588e+00 -5.19127558e+00
 -8.57567668e-01  1.26035625e+00 -5.19127558e+00 -8.57567668e-01  1.26035625e+00
 -3.34045429e+00  3.80796179e+00 -1.73795042e+00 -3.34045429e+00  3.80796179e+00
 -1.73795042e+00 -4.23902103e+00  9.54578718e-01 -3.22369634e+00 -4.23902103e+00
  9.54578718e-01 -3.22369634e+00 -1.92631537e+00  2.89818597e+00 -4.64219102e+00
 -1.92631537e+00  2.89818597e+00 -4.64219102e+00
Total Energy                               R     -6.892187332177734e+02
Alpha Orbital Energies                     R   N=         290
 -1.92369957e+01 -1.91835343e+01 -1.91760621e+01 -1.91760613e+01 -1.03470831e+01
 -1.03470779e+01 -1.02707233e+01 -1.02707029e+01 -1.02469473e+01 -1.02467808e+01
 -1.02156193e+01 -1.02156087e+01 -1.02155071e+01 -1.02153292e+01 -1.15524949e+00
 -1.08746945e+00 -1.08217466e+00 -1.04894030e+00 -8.66361697e-01 -8.06121721e-01
 -8.03004870e-01 -7.36584530e-01 -7.17403668e-01 -6.90654378e-01 -6.36696158e-01
 -6.32595991e-01 -5.90157693e-01 -5.81280158e-01 -5.31695552e-01 -5.13304300e-01
 -4.99996935e-01 -4.96568188e-01 -4.81185830e-01 -4.69394110e-01 -4.63955245e-01
 -4.54935240e-01 -4.39453552e-01 -4.38581547e-01 -4.32735304e-01 -4.17136149e-01
 -4.01582614e-01 -3.99228109e-01 -3.92010983e-01 -3.82690055e-01 -3.76610975e-01
 -3.75264890e-01 -3.50553757e-01 -3.48768176e-01 -3.42800642e-01 -3.13966049e-01
 -2.94319258e-01 -2.88832675e-01 -4.18323376e-02 -2.65897581e-02 -7.74366372e-03
  3.40719756e-03  5.53925736e-03  1.08622382e-02  3.15410136e-02  3.37788740e-02
  3.53838996e-02  3.83400714e-02  3.91692737e-02  5.94378717e-02  6.83635305e-02
  7.09904359e-02  7.18302096e-02  7.68195078e-02  7.90593039e-02  8.35776307e-02
  9.04943344e-02  9.16450456e-02  1.08592646e-01  1.13862688e-01  1.17146027e-01
  1.19300541e-01  1.27422718e-01  1.27754262e-01  1.35710929e-01  1.43273425e-01
  1.46470997e-01  1.49461596e-01  1.52883787e-01  1.54838116e-01  1.58981637e-01
  1.60746445e-01  1.70024791e-01  1.71057630e-01  1.78076667e-01  1.80571534e-01
  1.86148422e-01  1.89689724e-01  1.95604115e-01  1.99599907e-01  1.99726021e-01
  2.00907453e-01  2.15125338e-01  2.20207625e-01  2.34257192e-01  2.35913489e-01
  2.39768278e-01  2.42728876e-01  2.51608557e-01  2.59554504e-01  2.60762064e-01
  2.71998305e-01  2.82006139e-01  2.89624386e-01  2.90083967e-01  2.91049795e-01
  3.01261942e-01  3.09422489e-01  3.11407761e-01  3.12576412e-01  3.20197991e-01
  3.26177185e-01  3.33862568e-01  3.37628967e-01  3.46015388e-01  3.49984272e-01
  3.53186145e-01  3.59348592e-01  3.72237270e-01  3.75049326e-01  3.82853034e-01
  3.90320335e-01  3.97152026e-01  3.98571433e-01  4.06275482e-01  4.18522548e-01
  4.25879850e-01  4.35702091e-01  4.38508707e-01  4.53202575e-01  4.77503138e-01
  4.93881637e-01  5.05263927e-01  5.70194422e-01  6.15067616e-01  6.56251428e-01
  6.70428364e-01  6.72598765e-01  6.73343126e-01  7.05365730e-01  7.12512644e-01
  7.27244969e-01  7.31355527e-01  7.54120340e-01  7.56855501e-01  7.65391849e-01
  7.71029858e-01  7.80089079e-01  7.95841236e-01  8.03744448e-01  8.15137736e-01
  8.24377258e-01  8.34015969e-01  8.53284658e-01  8.61256069e-01  8.78497428e-01
  9.10263241e-01  9.10879143e-01  9.27088881e-01  9.37482869e-01  9.73478856e-01
  9.78898767e-01  9.83691918e-01  1.00116611e+00  1.00729434e+00  1.01458318e+00
  1.02640587e+00  1.05227906e+00  1.07600687e+00  1.09434916e+00  1.11957478e+00
  1.13235133e+00  1.13642477e+00  1.15336036e+00  1.17279156e+00  1.17912643e+00
  1.19590832e+00  1.23192952e+00  1.23254171e+00  1.24314217e+00  1.27452843e+00
  1.27956578e+00  1.28789212e+00  1.31056393e+00  1.32410184e+00  1.34046134e+00
  1.34057168e+00  1.37135884e+00  1.38025412e+00  1.39907113e+00  1.40299942e+00
  1.41357749e+00  1.42494802e+00  1.44842693e+00  1.45865954e+00  1.47775125e+00
  1.50892664e+00  1.52741322e+00  1.53695395e+00  1.58830647e+00  1.60506875e+00
  1.64790010e+00  1.65548512e+00  1.68312293e+00  1.70385849e+00  1.71754692e+00
  1.73996650e+00  1.75213328e+00  1.77074691e+00  1.79516775e+00  1.79750000e+00
  1.80173739e+00  1.82161930e+00  1.83035419e+00  1.85412318e+00  1.86768555e+00
  1.89324759e+00  1.89651186e+00  1.90340407e+00  1.92702645e+00  1.93453085e+00
  1.93904061e+00  1.96754704e+00  1.97829030e+00  1.98615571e+00  2.02086355e+00
  2.04171255e+00  2.05491123e+00  2.07934911e+00  2.08039065e+00  2.09456936e+00
  2.13287092e+00  2.15436309e+00  2.17045345e+00  2.18425970e+00  2.23388090e+00
  2.24211812e+00  2.24279261e+00  2.26563883e+00  2.27187021e+00  2.29351585e+00
  2.33428952e+00  2.33743534e+00  2.37284054e+00  2.37952679e+00  2.39632630e+00
  2.49708792e+00  2.50229636e+00  2.52290902e+00  2.52642447e+00  2.55510336e+00
  2.57455683e+00  2.59834168e+00  2.64112015e+00  2.67284163e+00  2.68268751e+00
  2.70673025e+00  2.74482247e+00  2.75917633e+00  2.76851383e+00  2.79056010e+00
  2.82987825e+00  2.86478012e+00  2.87889195e+00  2.91484014e+00  2.99692401e+00
  3.03265507e+00  3.08234186e+00  3.12514763e+00  3.23436676e+00  3.26737023e+00
  3.31057892e+00  4.17185145e+00  4.27291352e+00  4.30517952e+00  4.32590971e+00
  4.44124383e+00  4.44507078e+00  4.51346043e+00  4.53258723e+00  4.59996958e+00