Generated by Psi4
     FORCE                           RHF                       TESTBAS
Number of atoms                            I               22
Charge                                     I                0
Multiplicity                               I                1
Number of electrons                        I               80
Number of alpha electrons                  I               40
Number of beta electrons                   I               40
Number of basis functions                  I              231
Number of independent functions            I              231
Atomic numbers                             I   N=          22
           6           6           7           6           6           6
           6           6           1           1           1           1
           1           6           1           1           8           6
           1           1           1           1
Nuclear charges                            R   N=          22
  6.00000000e+00  6.00000000e+00  7.00000000e+00  6.00000000e+00  6.00000000e+00
  6.00000000e+00  6.00000000e+00  6.00000000e+00  1.00000000e+00  1.00000000e+00
  1.00000000e+00  1.00000000e+00  1.00000000e+00  6.00000000e+00  1.00000000e+00
  1.00000000e+00  8.00000000e+00  6.00000000e+00  1.00000000e+00  1.00000000e+00
  1.00000000e+00  1.00000000e+00
Current cartesian coordinates              R   N=          66
  7.74032500e-01 -1.76553955e-01 -5.99253484e-01 -3.32018154e+00 -1.80116098e-01
  2.26710218e+00 -4.65159545e+00 -1.85184468e+00  4.01497337e+00  3.33543659e+00
 -8.28458883e-01 -8.79030930e-01  4.67101573e+00 -1.25495457e-01 -3.03541318e+00
  3.46548243e+00  1.24152091e+00 -4.95276070e+00  9.21048450e-01  1.89940174e+00
 -4.69877676e+00 -4.18155275e-01  1.19510112e+00 -2.53638752e+00  4.24062304e+00
 -1.89001908e+00  6.24754980e-01 -2.39310324e+00  1.72537591e+00 -2.38139054e+00
  6.65030652e+00 -6.39942640e-01 -3.22690560e+00  4.50559376e+00  1.79004842e+00
 -6.63722560e+00 -2.37307051e-02  2.95878977e+00 -6.18306086e+00 -5.61948479e-01
 -9.97145548e-01  1.76516955e+00 -3.56334251e+00 -2.11077747e+00  5.58559119e+00
 -4.85128302e+00 -3.60102936e+00  3.23306341e+00  5.40072735e-01 -2.28053600e+00
  3.34655084e+00 -3.33205240e+00  2.53199148e+00  3.32750784e+00 -4.37529410e+00
 -2.00486317e-01  4.85164202e-01 -2.34328045e+00  2.58834464e+00  5.14836692e+00
 -5.28640185e+00  3.13445540e+00  3.63239197e+00 -2.40100012e+00  3.87112089e+00
  2.05333740e+00
Integer atomic weights                     I   N=          22
          12          12          14          12          12          12
          12          12           1           1           1           1
           1          12           1           1          15          12
           1           1           1           1
Real atomic weights                        R   N=          22
  1.20000000e+01  1.20000000e+01  1.40030740e+01  1.20000000e+01  1.20000000e+01
  1.20000000e+01  1.20000000e+01  1.20000000e+01  1.00782503e+00  1.00782503e+00
  1.00782503e+00  1.00782503e+00  1.00782503e+00  1.20000000e+01  1.00782503e+00
  1.00782503e+00  1.59949146e+01  1.20000000e+01  1.00782503e+00  1.00782503e+00
  1.00782503e+00  1.00782503e+00
Number of primitive shells                 I              231
Number of contracted shells                I              110
Pure/Cartesian d shells                    I                1
Pure/Cartesian f shells                    I                1
Highest angular momentum                   I                2
Largest degree of contraction              I                6
Shell types                                I   N=         110
           0           0           1           0           1           2
           0           1           0           0           1           0
           1           2           0           1           0           0
           1           0           1           2           0           1
           0           0           1           0           1           2
           0           1           0           0           1           0
           1           2           0           1           0           0
           1           0           1           2           0           1
           0           0           1           0           1           2
           0           1           0           0           1           0
           1           2           0           1           0           0
           0           0           0           0           0           0
           0           0           0           0           1           0
           1           2           0           1           0           0
           0           0           0           0           1           0
           1           2           0           1           0           0
           1           0           1           2           0           1
           0           0           0           0           0           0
           0           0
Number of primitives per shell             I   N=         110
           6           3           3           1           1           1
           1           1           6           3           3           1
           1           1           1           1           6           3
           3           1           1           1           1           1
           6           3           3           1           1           1
           1           1           6           3           3           1
           1           1           1           1           6           3
           3           1           1           1           1           1
           6           3           3           1           1           1
           1           1           6           3           3           1
           1           1           1           1           3           1
           3           1           3           1           3           1
           3           1           6           3           3           1
           1           1           1           1           3           1
           3           1           6           3           3           1
           1           1           1           1           6           3
           3           1           1           1           1           1
           3           1           3           1           3           1
           3           1
Shell to atom map                          I   N=         110
           1           1           1           1           1           1
           1           1           2           2           2           2
           2           2           2           2           3           3
           3           3           3           3           3           3
           4           4           4           4           4           4
           4           4           5           5           5           5
           5           5           5           5           6           6
           6           6           6           6           6           6
           7           7           7           7           7           7
           7           7           8           8           8           8
           8           8           8           8           9           9
          10          10          11          11          12          12
          13          13          14          14          14          14
          14          14          14          14          15          15
          16          16          17          17          17          17
          17          17          17          17          18          18
          18          18          18          18          18          18
          19          19          20          20          21          21
          22          22
Primitive exponents                        R   N=         231
  3.04752490e+03  4.57369510e+02  1.03948690e+02  2.92101550e+01  9.28666300e+00
  3.16392700e+00  7.86827240e+00  1.88128850e+00  5.44249300e-01  7.86827240e+00
  1.88128850e+00  5.44249300e-01  1.68714400e-01  1.68714400e-01  8.00000000e-01
  4.38000000e-02  4.38000000e-02  3.04752490e+03  4.57369510e+02  1.03948690e+02
  2.92101550e+01  9.28666300e+00  3.16392700e+00  7.86827240e+00  1.88128850e+00
  5.44249300e-01  7.86827240e+00  1.88128850e+00  5.44249300e-01  1.68714400e-01
  1.68714400e-01  8.00000000e-01  4.38000000e-02  4.38000000e-02  4.17351100e+03
  6.27457900e+02  1.42902100e+02  4.02343300e+01  1.28202100e+01  4.39043700e+00
  1.16263580e+01  2.71628000e+00  7.72218000e-01  1.16263580e+01  2.71628000e+00
  7.72218000e-01  2.12031300e-01  2.12031300e-01  8.00000000e-01  6.39000000e-02
  6.39000000e-02  3.04752490e+03  4.57369510e+02  1.03948690e+02  2.92101550e+01
  9.28666300e+00  3.16392700e+00  7.86827240e+00  1.88128850e+00  5.44249300e-01
  7.86827240e+00  1.88128850e+00  5.44249300e-01  1.68714400e-01  1.68714400e-01
  8.00000000e-01  4.38000000e-02  4.38000000e-02  3.04752490e+03  4.57369510e+02
  1.03948690e+02  2.92101550e+01  9.28666300e+00  3.16392700e+00  7.86827240e+00
  1.88128850e+00  5.44249300e-01  7.86827240e+00  1.88128850e+00  5.44249300e-01
  1.68714400e-01  1.68714400e-01  8.00000000e-01  4.38000000e-02  4.38000000e-02
  3.04752490e+03  4.57369510e+02  1.03948690e+02  2.92101550e+01  9.28666300e+00
  3.16392700e+00  7.86827240e+00  1.88128850e+00  5.44249300e-01  7.86827240e+00
  1.88128850e+00  5.44249300e-01  1.68714400e-01  1.68714400e-01  8.00000000e-01
  4.38000000e-02  4.38000000e-02  3.04752490e+03  4.57369510e+02  1.03948690e+02
  2.92101550e+01  9.28666300e+00  3.16392700e+00  7.86827240e+00  1.88128850e+00
  5.44249300e-01  7.86827240e+00  1.88128850e+00  5.44249300e-01  1.68714400e-01
  1.68714400e-01  8.00000000e-01  4.38000000e-02  4.38000000e-02  3.04752490e+03
  4.57369510e+02  1.03948690e+02  2.92101550e+01  9.28666300e+00  3.16392700e+00
  7.86827240e+00  1.88128850e+00  5.44249300e-01  7.86827240e+00  1.88128850e+00
  5.44249300e-01  1.68714400e-01  1.68714400e-01  8.00000000e-01  4.38000000e-02
  4.38000000e-02  1.87311370e+01  2.82539370e+00  6.40121700e-01  1.61277800e-01
  1.87311370e+01  2.82539370e+00  6.40121700e-01  1.61277800e-01  1.87311370e+01
  2.82539370e+00  6.40121700e-01  1.61277800e-01  1.87311370e+01  2.82539370e+00
  6.40121700e-01  1.61277800e-01  1.87311370e+01  2.82539370e+00  6.40121700e-01
  1.61277800e-01  3.04752490e+03  4.57369510e+02  1.03948690e+02  2.92101550e+01
  9.28666300e+00  3.16392700e+00  7.86827240e+00  1.88128850e+00  5.44249300e-01
  7.86827240e+00  1.88128850e+00  5.44249300e-01  1.68714400e-01  1.68714400e-01
  8.00000000e-01  4.38000000e-02  4.38000000e-02  1.87311370e+01  2.82539370e+00
  6.40121700e-01  1.61277800e-01  1.87311370e+01  2.82539370e+00  6.40121700e-01
  1.61277800e-01  5.48467170e+03  8.25234950e+02  1.88046960e+02  5.29645000e+01
  1.68975700e+01  5.79963530e+00  1.55396160e+01  3.59993360e+00  1.01376180e+00
  1.55396160e+01  3.59993360e+00  1.01376180e+00  2.70005800e-01  2.70005800e-01
  8.00000000e-01  8.45000000e-02  8.45000000e-02  3.04752490e+03  4.57369510e+02
  1.03948690e+02  2.92101550e+01  9.28666300e+00  3.16392700e+00  7.86827240e+00
  1.88128850e+00  5.44249300e-01  7.86827240e+00  1.88128850e+00  5.44249300e-01
  1.68714400e-01  1.68714400e-01  8.00000000e-01  4.38000000e-02  4.38000000e-02
  1.87311370e+01  2.82539370e+00  6.40121700e-01  1.61277800e-01  1.87311370e+01
  2.82539370e+00  6.40121700e-01  1.61277800e-01  1.87311370e+01  2.82539370e+00
  6.40121700e-01  1.61277800e-01  1.87311370e+01  2.82539370e+00  6.40121700e-01
  1.61277800e-01
Contraction coefficients                   R   N=         231
  1.83470016e-03  1.40373012e-02  6.88426061e-02  2.32184421e-01  4.67941342e-01
  3.62312032e-01 -1.19332409e-01 -1.60854212e-01  1.14345648e+00  6.89990956e-02
  3.16423980e-01  7.44308252e-01  1.00000000e+00  1.00000000e+00  1.00000000e+00
  1.00000000e+00  1.00000000e+00  1.83470016e-03  1.40373012e-02  6.88426061e-02
  2.32184421e-01  4.67941342e-01  3.62312032e-01 -1.19332409e-01 -1.60854212e-01
  1.14345648e+00  6.89990956e-02  3.16423980e-01  7.44308252e-01  1.00000000e+00
  1.00000000e+00  1.00000000e+00  1.00000000e+00  1.00000000e+00  1.83479944e-03
  1.39949958e-02  6.85869792e-02  2.32240930e-01  4.69069858e-01  3.60454891e-01
 -1.14961023e-01 -1.69118034e-01  1.14585223e+00  6.75800232e-02  3.23907111e-01
  7.40895255e-01  1.00000000e+00  1.00000000e+00  1.00000000e+00  1.00000000e+00
  1.00000000e+00  1.83470016e-03  1.40373012e-02  6.88426061e-02  2.32184421e-01
  4.67941342e-01  3.62312032e-01 -1.19332409e-01 -1.60854212e-01  1.14345648e+00
  6.89990956e-02  3.16423980e-01  7.44308252e-01  1.00000000e+00  1.00000000e+00
  1.00000000e+00  1.00000000e+00  1.00000000e+00  1.83470016e-03  1.40373012e-02
  6.88426061e-02  2.32184421e-01  4.67941342e-01  3.62312032e-01 -1.19332409e-01
 -1.60854212e-01  1.14345648e+00  6.89990956e-02  3.16423980e-01  7.44308252e-01
  1.00000000e+00  1.00000000e+00  1.00000000e+00  1.00000000e+00  1.00000000e+00
  1.83470016e-03  1.40373012e-02  6.88426061e-02  2.32184421e-01  4.67941342e-01
  3.62312032e-01 -1.19332409e-01 -1.60854212e-01  1.14345648e+00  6.89990956e-02
  3.16423980e-01  7.44308252e-01  1.00000000e+00  1.00000000e+00  1.00000000e+00
  1.00000000e+00  1.00000000e+00  1.83470016e-03  1.40373012e-02  6.88426061e-02
  2.32184421e-01  4.67941342e-01  3.62312032e-01 -1.19332409e-01 -1.60854212e-01
  1.14345648e+00  6.89990956e-02  3.16423980e-01  7.44308252e-01  1.00000000e+00
  1.00000000e+00  1.00000000e+00  1.00000000e+00  1.00000000e+00  1.83470016e-03
  1.40373012e-02  6.88426061e-02  2.32184421e-01  4.67941342e-01  3.62312032e-01
 -1.19332409e-01 -1.60854212e-01  1.14345648e+00  6.89990956e-02  3.16423980e-01
  7.44308252e-01  1.00000000e+00  1.00000000e+00  1.00000000e+00  1.00000000e+00
  1.00000000e+00  3.34945995e-02  2.34726947e-01  8.13757318e-01  1.00000000e+00
  3.34945995e-02  2.34726947e-01  8.13757318e-01  1.00000000e+00  3.34945995e-02
  2.34726947e-01  8.13757318e-01  1.00000000e+00  3.34945995e-02  2.34726947e-01
  8.13757318e-01  1.00000000e+00  3.34945995e-02  2.34726947e-01  8.13757318e-01
  1.00000000e+00  1.83470016e-03  1.40373012e-02  6.88426061e-02  2.32184421e-01
  4.67941342e-01  3.62312032e-01 -1.19332409e-01 -1.60854212e-01  1.14345648e+00
  6.89990956e-02  3.16423980e-01  7.44308252e-01  1.00000000e+00  1.00000000e+00
  1.00000000e+00  1.00000000e+00  1.00000000e+00  3.34945995e-02  2.34726947e-01
  8.13757318e-01  1.00000000e+00  3.34945995e-02  2.34726947e-01  8.13757318e-01
  1.00000000e+00  1.83109981e-03  1.39500985e-02  6.84450927e-02  2.32714275e-01
  4.70192950e-01  3.58520862e-01 -1.10777504e-01 -1.48026305e-01  1.13076704e+00
  7.08742995e-02  3.39752798e-01  7.27158595e-01  1.00000000e+00  1.00000000e+00
  1.00000000e+00  1.00000000e+00  1.00000000e+00  1.83470016e-03  1.40373012e-02
  6.88426061e-02  2.32184421e-01  4.67941342e-01  3.62312032e-01 -1.19332409e-01
 -1.60854212e-01  1.14345648e+00  6.89990956e-02  3.16423980e-01  7.44308252e-01
  1.00000000e+00  1.00000000e+00  1.00000000e+00  1.00000000e+00  1.00000000e+00
  3.34945995e-02  2.34726947e-01  8.13757318e-01  1.00000000e+00  3.34945995e-02
  2.34726947e-01  8.13757318e-01  1.00000000e+00  3.34945995e-02  2.34726947e-01
  8.13757318e-01  1.00000000e+00  3.34945995e-02  2.34726947e-01  8.13757318e-01
  1.00000000e+00
Coordinates of each shell                  R   N=         330
  7.74032500e-01 -1.76553955e-01 -5.99253484e-01  7.74032500e-01 -1.76553955e-01
 -5.99253484e-01  7.74032500e-01 -1.76553955e-01 -5.99253484e-01  7.74032500e-01
 -1.76553955e-01 -5.99253484e-01  7.74032500e-01 -1.76553955e-01 -5.99253484e-01
  7.74032500e-01 -1.76553955e-01 -5.99253484e-01  7.74032500e-01 -1.76553955e-01
 -5.99253484e-01  7.74032500e-01 -1.76553955e-01 -5.99253484e-01 -3.32018154e+00
 -1.80116098e-01  2.26710218e+00 -3.32018154e+00 -1.80116098e-01  2.26710218e+00
 -3.32018154e+00 -1.80116098e-01  2.26710218e+00 -3.32018154e+00 -1.80116098e-01
  2.26710218e+00 -3.32018154e+00 -1.80116098e-01  2.26710218e+00 -3.32018154e+00
 -1.80116098e-01  2.26710218e+00 -3.32018154e+00 -1.80116098e-01  2.26710218e+00
 -3.32018154e+00 -1.80116098e-01  2.26710218e+00 -4.65159545e+00 -1.85184468e+00
  4.01497337e+00 -4.65159545e+00 -1.85184468e+00  4.01497337e+00 -4.65159545e+00
 -1.85184468e+00  4.01497337e+00 -4.65159545e+00 -1.85184468e+00  4.01497337e+00
 -4.65159545e+00 -1.85184468e+00  4.01497337e+00 -4.65159545e+00 -1.85184468e+00
  4.01497337e+00 -4.65159545e+00 -1.85184468e+00  4.01497337e+00 -4.65159545e+00
 -1.85184468e+00  4.01497337e+00  3.33543659e+00 -8.28458883e-01 -8.79030930e-01
  3.33543659e+00 -8.28458883e-01 -8.79030930e-01  3.33543659e+00 -8.28458883e-01
 -8.79030930e-01  3.33543659e+00 -8.28458883e-01 -8.79030930e-01  3.33543659e+00
 -8.28458883e-01 -8.79030930e-01  3.33543659e+00 -8.28458883e-01 -8.79030930e-01
  3.33543659e+00 -8.28458883e-01 -8.79030930e-01  3.33543659e+00 -8.28458883e-01
 -8.79030930e-01  4.67101573e+00 -1.25495457e-01 -3.03541318e+00  4.67101573e+00
 -1.25495457e-01 -3.03541318e+00  4.67101573e+00 -1.25495457e-01 -3.03541318e+00
  4.67101573e+00 -1.25495457e-01 -3.03541318e+00  4.67101573e+00 -1.25495457e-01
 -3.03541318e+00  4.67101573e+00 -1.25495457e-01 -3.03541318e+00  4.67101573e+00
 -1.25495457e-01 -3.03541318e+00  4.67101573e+00 -1.25495457e-01 -3.03541318e+00
  3.46548243e+00  1.24152091e+00 -4.95276070e+00  3.46548243e+00  1.24152091e+00
 -4.95276070e+00  3.46548243e+00  1.24152091e+00 -4.95276070e+00  3.46548243e+00
  1.24152091e+00 -4.95276070e+00  3.46548243e+00  1.24152091e+00 -4.95276070e+00
  3.46548243e+00  1.24152091e+00 -4.95276070e+00  3.46548243e+00  1.24152091e+00
 -4.95276070e+00  3.46548243e+00  1.24152091e+00 -4.95276070e+00  9.21048450e-01
  1.89940174e+00 -4.69877676e+00  9.21048450e-01  1.89940174e+00 -4.69877676e+00
  9.21048450e-01  1.89940174e+00 -4.69877676e+00  9.21048450e-01  1.89940174e+00
 -4.69877676e+00  9.21048450e-01  1.89940174e+00 -4.69877676e+00  9.21048450e-01
  1.89940174e+00 -4.69877676e+00  9.21048450e-01  1.89940174e+00 -4.69877676e+00
  9.21048450e-01  1.89940174e+00 -4.69877676e+00 -4.18155275e-01  1.19510112e+00
 -2.53638752e+00 -4.18155275e-01  1.19510112e+00 -2.53638752e+00 -4.18155275e-01
  1.19510112e+00 -2.53638752e+00 -4.18155275e-01  1.19510112e+00 -2.53638752e+00
 -4.18155275e-01  1.19510112e+00 -2.53638752e+00 -4.18155275e-01  1.19510112e+00
 -2.53638752e+00 -4.18155275e-01  1.19510112e+00 -2.53638752e+00 -4.18155275e-01
  1.19510112e+00 -2.53638752e+00  4.24062304e+00 -1.89001908e+00  6.24754980e-01
  4.24062304e+00 -1.89001908e+00  6.24754980e-01 -2.39310324e+00  1.72537591e+00
 -2.38139054e+00 -2.39310324e+00  1.72537591e+00 -2.38139054e+00  6.65030652e+00
 -6.39942640e-01 -3.22690560e+00  6.65030652e+00 -6.39942640e-01 -3.22690560e+00
  4.50559376e+00  1.79004842e+00 -6.63722560e+00  4.50559376e+00  1.79004842e+00
 -6.63722560e+00 -2.37307051e-02  2.95878977e+00 -6.18306086e+00 -2.37307051e-02
  2.95878977e+00 -6.18306086e+00 -5.61948479e-01 -9.97145548e-01  1.76516955e+00
 -5.61948479e-01 -9.97145548e-01  1.76516955e+00 -5.61948479e-01 -9.97145548e-01
  1.76516955e+00 -5.61948479e-01 -9.97145548e-01  1.76516955e+00 -5.61948479e-01
 -9.97145548e-01  1.76516955e+00 -5.61948479e-01 -9.97145548e-01  1.76516955e+00
 -5.61948479e-01 -9.97145548e-01  1.76516955e+00 -5.61948479e-01 -9.97145548e-01
  1.76516955e+00 -3.56334251e+00 -2.11077747e+00  5.58559119e+00 -3.56334251e+00
 -2.11077747e+00  5.58559119e+00 -4.85128302e+00 -3.60102936e+00  3.23306341e+00
 -4.85128302e+00 -3.60102936e+00  3.23306341e+00  5.40072735e-01 -2.28053600e+00
  3.34655084e+00  5.40072735e-01 -2.28053600e+00  3.34655084e+00  5.40072735e-01
 -2.28053600e+00  3.34655084e+00  5.40072735e-01 -2.28053600e+00  3.34655084e+00
  5.40072735e-01 -2.28053600e+00  3.34655084e+00  5.40072735e-01 -2.28053600e+00
  3.34655084e+00  5.40072735e-01 -2.28053600e+00  3.34655084e+00  5.40072735e-01
 -2.28053600e+00  3.34655084e+00 -3.33205240e+00  2.53199148e+00  3.32750784e+00
 -3.33205240e+00  2.53199148e+00  3.32750784e+00 -3.33205240e+00  2.53199148e+00
  3.32750784e+00 -3.33205240e+00  2.53199148e+00  3.32750784e+00 -3.33205240e+00
  2.53199148e+00  3.32750784e+00 -3.33205240e+00  2.53199148e+00  3.32750784e+00
 -3.33205240e+00  2.53199148e+00  3.32750784e+00 -3.33205240e+00  2.53199148e+00
  3.32750784e+00 -4.37529410e+00 -2.00486317e-01  4.85164202e-01 -4.37529410e+00
 -2.00486317e-01  4.85164202e-01 -2.34328045e+00  2.58834464e+00  5.14836692e+00
 -2.34328045e+00  2.58834464e+00  5.14836692e+00 -5.28640185e+00  3.13445540e+00
  3.63239197e+00 -5.28640185e+00  3.13445540e+00  3.63239197e+00 -2.40100012e+00
  3.87112089e+00  2.05333740e+00 -2.40100012e+00  3.87112089e+00  2.05333740e+00
Total Energy                               R     -4.795736583491192e+02
Alpha Orbital Energies                     R   N=         231
 -1.91535947e+01 -1.43239298e+01 -1.02838517e+01 -1.02325260e+01 -1.02186230e+01
 -1.02171753e+01 -1.02169650e+01 -1.02138188e+01 -1.02118723e+01 -1.02105579e+01
 -1.01897178e+01 -1.05116778e+00 -8.93979483e-01 -8.75711885e-01 -7.83209994e-01
 -7.66713308e-01 -7.46806992e-01 -6.65564168e-01 -6.30393712e-01 -6.14397860e-01
 -5.61473146e-01 -5.33238681e-01 -5.02817396e-01 -4.89117486e-01 -4.70590963e-01
 -4.55334318e-01 -4.49148658e-01 -4.41564655e-01 -4.23682842e-01 -4.22348900e-01
 -3.88979044e-01 -3.86323792e-01 -3.75642954e-01 -3.70485554e-01 -3.60785992e-01
 -3.54799957e-01 -2.74657891e-01 -2.73447772e-01 -2.71385998e-01 -2.44430851e-01
 -7.34712095e-02 -2.84319851e-02 -5.66311360e-03  8.97904623e-03  1.34803030e-02
  2.10953090e-02  3.01931943e-02  3.28167197e-02  4.11319665e-02  4.81979067e-02
  5.66720884e-02  6.09483019e-02  6.77313553e-02  7.10795295e-02  8.13283910e-02
  9.04093930e-02  9.37328889e-02  9.81121940e-02  1.08310022e-01  1.09852583e-01
  1.24711772e-01  1.29008140e-01  1.32794868e-01  1.37046926e-01  1.42423073e-01
  1.46616963e-01  1.52560890e-01  1.61749238e-01  1.65257221e-01  1.70008011e-01
  1.73832325e-01  1.76908003e-01  1.89753458e-01  1.92537099e-01  2.00186101e-01
  2.01811749e-01  2.02978449e-01  2.10271826e-01  2.18747758e-01  2.26463028e-01
  2.32522591e-01  2.33873545e-01  2.35585682e-01  2.46383514e-01  2.47510992e-01
  2.54940631e-01  2.58729268e-01  2.67958707e-01  2.77198324e-01  2.80943332e-01
  2.88900365e-01  2.96806327e-01  3.00615713e-01  3.09789333e-01  3.19730942e-01
  3.25106558e-01  3.30692236e-01  3.39500331e-01  3.46847226e-01  3.54140988e-01
  3.59100476e-01  3.62318498e-01  3.75508483e-01  4.09780734e-01  4.22446750e-01
  4.39537735e-01  4.53504873e-01  4.99060654e-01  5.75305202e-01  5.89174771e-01
  6.32879551e-01  6.58053021e-01  6.62406454e-01  6.76998498e-01  6.85075994e-01
  6.91142038e-01  6.99816028e-01  7.10913623e-01  7.24554151e-01  7.26068037e-01
  7.39227651e-01  7.43779501e-01  7.65107122e-01  7.68313013e-01  7.81806255e-01
  8.08578331e-01  8.14829953e-01  8.18532904e-01  8.54063512e-01  8.72161944e-01
  8.89438372e-01  9.12609511e-01  9.29669078e-01  9.41515417e-01  9.53532908e-01
  9.80090365e-01  9.90486889e-01  9.94861940e-01  1.01403053e+00  1.02366261e+00
  1.03364271e+00  1.03932595e+00  1.06055877e+00  1.07931221e+00  1.10001054e+00
  1.11874459e+00  1.13498794e+00  1.14375676e+00  1.15619194e+00  1.16290557e+00
  1.17982639e+00  1.21369855e+00  1.23857660e+00  1.25908075e+00  1.26645362e+00
  1.29435002e+00  1.33321327e+00  1.34631106e+00  1.36615951e+00  1.39536602e+00
  1.41563972e+00  1.42580638e+00  1.43418109e+00  1.46082955e+00  1.46460689e+00
  1.47462951e+00  1.48860385e+00  1.49099010e+00  1.56849150e+00  1.58394059e+00
  1.62166780e+00  1.69521405e+00  1.73143335e+00  1.74493021e+00  1.78762800e+00
  1.79505075e+00  1.83952138e+00  1.85678454e+00  1.89759701e+00  1.90975845e+00
  1.94023129e+00  1.95187629e+00  1.96608419e+00  1.99317216e+00  2.01621893e+00
  2.05428596e+00  2.07355697e+00  2.08968209e+00  2.12285267e+00  2.13375005e+00
  2.14282230e+00  2.15782453e+00  2.16769966e+00  2.19108517e+00  2.22402044e+00
  2.24746424e+00  2.27099624e+00  2.29118641e+00  2.32254256e+00  2.34340819e+00
  2.40170090e+00  2.41308961e+00  2.46023847e+00  2.51969913e+00  2.53375763e+00
  2.59838007e+00  2.60576953e+00  2.62068766e+00  2.64066242e+00  2.66810096e+00
  2.69803336e+00  2.74734883e+00  2.75946653e+00  2.78126253e+00  2.85895086e+00
  2.89502581e+00  3.00135641e+00  3.11717863e+00  3.22424157e+00  3.39743168e+00
  4.00043048e+00  4.22198918e+00  4.23194662e+00  4.23975387e+00  4.26717748e+00
  4.32529322e+00  4.37637652e+00  4.41787901e+00  4.51149454e+00  4.64046699e+00
  4.74716350e+00
Alpha MO coefficients                      R   N=       53361
 -1.19787164e-06 -9.42362388e-05  1.01297244e-05 -1.95974808e-05  1.00151070e-05
  4.03364202e-04 -1.60092062e-04  1.07972648e-04 -3.65092542e-06 -6.74856880e-06
  3.55361019e-05  9.35656942e-05 -1.15948621e-05  2.61021206e-05 -6.86378511e-05
  1.98876256e-02 -6.68388535e-03  9.03924698e-04  2.06173226e-03 -3.13741015e-06
 -7.06254960e-05  1.70306541e-05  9.41152633e-06 -3.15277335e-06  6.72697830e-05
  1.86083944e-04 -1.07714774e-04 -2.97414984e-04  4.56418980e-05  6.45860846e-06
  1.46692783e-06 -4.01552032e-05  3.30039820e-05 -2.16091843e-05 -1.05425389e-02
 -7.76983630e-04 -1.81936734e-03 -2.00717036e-03 -1.31926052e-05 -3.26577326e-05
 -2.00981417e-05 -1.10575688e-05  6.79083493e-06  3.09691106e-04 -2.84359950e-05
  1.71936161e-04 -1.93547709e-05 -6.00443360e-05 -2.88317762e-05 -2.30304611e-05
  1.31026811e-05  1.60172278e-05 -2.53265582e-05  6.15159554e-04 -8.76102473e-05
 -9.94217377e-06  1.84349802e-04  3.03267784e-06  3.75858098e-05 -1.42856120e-05
  1.59676980e-05 -2.08216569e-05 -1.31140370e-04  2.14392550e-04 -1.32987805e-04
  1.10581406e-04  3.90392385e-06 -7.38507897e-06 -2.50149656e-05 -1.75770257e-05
  2.67069033e-05  6.99132564e-07  8.62972277e-03 -1.61485535e-04  2.25378882e-04
  2.32924197e-04 -5.70769722e-06 -2.96117397e-05  9.26677469e-06 -2.52326926e-06
 -2.45316932e-07  2.42136657e-04 -2.84630882e-04  9.69084146e-05 -1.61231482e-05
  1.26885362e-06 -1.13336374e-05  2.02458393e-06 -4.14612692e-07 -9.81972433e-06
 -7.60151412e-06 -1.50944022e-03  4.47724006e-05  4.68513161e-04 -1.29555877e-03
  1.18456204e-06  1.08791244e-05 -1.25716546e-07  1.65895216e-06 -2.62037657e-06
 -2.52797175e-04  7.14923703e-05  7.19240757e-05 -1.84825207e-04 -2.00902889e-06
 -6.68144629e-07 -3.75522353e-06  6.23578238e-07  1.31969452e-06  2.21919583e-06
 -1.83979098e-03 -1.79016493e-04  7.69778585e-05  1.39993968e-04 -6.83933268e-06
 -3.77572572e-05  9.30602228e-07 -1.94029237e-07 -4.44205035e-07  4.69299073e-04
 -2.24140558e-05 -1.04143172e-04  2.21592788e-04 -1.19904358e-06 -1.00647569e-05
  9.09951464e-07 -1.22368751e-06 -6.61667549e-06 -6.42841245e-06 -5.88503035e-03
  1.63373295e-03  3.68909245e-05 -1.12835545e-03 -1.02697606e-05 -2.70469212e-05
 -9.95884562e-06  2.21117398e-05 -4.26054569e-05 -2.25011311e-04 -1.94590090e-04
 -7.41042891e-05  2.53927607e-04 -2.89191782e-05 -2.87587295e-05 -3.26410874e-05
  5.78756542e-06 -1.36202078e-05  6.74846405e-06 -5.74263421e-03  8.15974040e-04
  2.66154182e-03 -5.62271677e-03 -1.07201553e-05 -4.42444088e-04 -3.62137916e-05
  9.38335078e-05  1.21169152e-05  1.25424008e-04 -7.22016108e-06 -6.73814049e-05
 -4.10675757e-06  6.25107686e-05  2.36771283e-05 -3.42561463e-04 -1.27520307e-04
  1.57822237e-04 -2.01155013e-04 -3.20315075e-04  4.19334585e-04 -5.70409388e-04
  7.96045058e-04  2.09409930e-04  2.65923166e-04  2.96804798e-04 -8.56803463e-05
  1.27847186e-04 -1.14142132e-04 -1.62885323e-02 -3.90862296e-03 -3.97872055e-04
  2.25243065e-03 -5.44928129e-05 -2.33942779e-07  1.82230396e-05  4.26236359e-05
 -9.92546771e-01 -2.50955902e-02  5.94736051e-04 -6.94838772e-04  8.53012990e-04
 -1.62835485e-02 -1.77266797e-04  1.65176419e-04 -2.56635565e-04  8.67948169e-03
  8.68678108e-03  8.67223957e-03  2.89960162e-05 -2.75093386e-05  3.73663470e-05
  8.97866237e-03 -6.48302054e-05  4.09337717e-04 -2.67448451e-04 -4.62506975e-06
 -2.06496194e-05 -5.58399735e-06  7.07289226e-06  1.19785745e-05  3.79510178e-04
  1.30944339e-05 -1.86347717e-04 -6.68249902e-05 -9.20237955e-06  3.98708642e-06
 -6.47423585e-06  1.64046322e-05 -1.82933400e-05  9.69135444e-06  8.84819071e-03
  6.12414603e-04 -2.32889132e-03 -5.69117523e-04 -3.55044626e-05  2.56644310e-04
  4.46929447e-05 -2.07612058e-04  4.07172017e-06 -7.38793886e-05  1.52144388e-05
 -1.31451875e-04  6.25011634e-06  3.66024128e-05 -1.00060899e-05  3.66063591e-06
  1.44928531e-05 -2.31249411e-04  7.18376811e-04  6.50256460e-05 -6.15936802e-04
  9.97600817e-06  1.09606269e-05 -1.71492402e-05 -7.84014777e-06  1.74108430e-05
  1.22416491e-05  2.01182818e-02  2.74581257e-03 -4.45895247e-03  7.20567074e-03
  2.81374634e-05  2.02757412e-05  1.24038463e-04  1.43682315e-04 -1.75659244e-04
 -9.61418724e-04 -1.49380419e-04  3.57168633e-04 -3.96357303e-05  1.84379751e-05
 -1.79657954e-05 -1.18183718e-05 -5.61698257e-05  8.02877991e-05  8.70037364e-05
 -1.51279443e-02  4.47545763e-04  1.12129651e-03 -4.80206959e-03 -9.92658176e-01
 -3.46531357e-02 -1.13445537e-03  5.14496947e-04  3.24149471e-04 -4.22845075e-03
  1.08041348e-03 -3.01996639e-04 -4.84947661e-04  8.36898530e-03  8.33301869e-03
  8.36448214e-03  5.44104712e-05 -6.90036377e-05 -5.04413743e-05  5.61103435e-03
 -7.56865861e-04  1.07947073e-03 -2.74900517e-05  7.52284975e-06  4.06050024e-05
 -2.50769453e-06  1.67347031e-06 -4.98507884e-06 -6.15360640e-04  3.30036337e-04
 -2.21980165e-04  2.59466546e-04 -5.96322461e-06  1.09385491e-05  7.70252677e-06
  8.74074093e-06 -5.10554418e-06  5.15846034e-06 -1.05992350e-02  1.31385523e-03
 -1.07340615e-03  9.98909761e-04 -1.75753745e-06 -1.04371433e-05 -4.85029666e-06
  1.68710294e-07  3.91596609e-06  3.04952789e-04 -1.72709160e-04  3.90985544e-05
  1.38198454e-05  1.04595924e-06 -9.06551183e-07 -8.76076335e-07  1.01835879e-06