Generated by Psi4
     FORCE                           RHF                       TESTBAS
Number of atoms                            I               26
Charge                                     I                0
Multiplicity                               I                1
Number of electrons                        I               98
Number of alpha electrons                  I               49
Number of beta electrons                   I               49
Number of basis functions                  I              260
Number of independent functions            I              260
Atomic numbers                             I   N=          26
           6           6           6          17           1           7
           6           6           6           6           6           1
           1           1           1           1           6           1
           1           1           1           6           1           1
           1           1
Nuclear charges                            R   N=          26
  6.00000000e+00  6.00000000e+00  6.00000000e+00  1.70000000e+01  1.00000000e+00
  7.00000000e+00  6.00000000e+00  6.00000000e+00  6.00000000e+00  6.00000000e+00
  6.00000000e+00  1.00000000e+00  1.00000000e+00  1.00000000e+00  1.00000000e+00
  1.00000000e+00  6.00000000e+00  1.00000000e+00  1.00000000e+00  1.00000000e+00
  1.00000000e+00  6.00000000e+00  1.00000000e+00  1.00000000e+00  1.00000000e+00
  1.00000000e+00
Current cartesian coordinates              R   N=          78
  1.20671406e+00 -1.07067489e-01 -1.35473919e+00 -6.58056976e-01 -1.24704271e+00
  4.73747537e-01 -2.67600484e+00  5.83075295e-01  1.50897783e+00  1.10836399e+00
 -2.68978523e+00  3.15507684e+00 -1.61762042e+00 -2.85632842e+00 -3.91796203e-01
 -4.42207034e+00 -8.06552923e-01  3.14753389e+00  2.75114810e+00  1.94128359e+00
 -6.78825774e-01  4.42048550e+00  2.99400704e+00 -2.42583899e+00  4.57837031e+00
  2.01261275e+00 -4.87668553e+00  3.06198697e+00 -3.44045766e-02 -5.56236119e+00
  1.39208853e+00 -1.08814430e+00 -3.80674676e+00  2.67051402e+00  2.69222312e+00
  1.23076361e+00  2.20962300e-01 -2.68808100e+00 -4.34915307e+00  5.60776244e+00
  4.57659909e+00 -1.87312442e+00  5.88353389e+00  2.83282903e+00 -6.23421207e+00
  3.17966451e+00 -8.20036472e-01 -7.45660226e+00 -4.12256808e+00  1.78998633e+00
 -7.03089247e-01 -1.69220801e+00  2.10249680e+00  2.55924891e+00 -5.06768998e+00
  3.31425641e-01 -1.83085554e+00 -2.85839908e+00  2.87216507e+00 -1.92791965e+00
 -5.57114797e+00  3.08541147e+00  4.44988056e-03 -6.13451994e+00  7.78637083e-01
  4.62816902e+00 -3.39319463e+00 -1.89305613e+00  4.35513269e+00 -7.58572499e+00
  1.62040333e+00  3.41763901e+00 -5.16813788e+00  2.32466265e+00  5.65160376e+00
 -7.10365029e+00 -4.10855885e-01  6.01545560e+00
Integer atomic weights                     I   N=          26
          12          12          12          34           1          14
          12          12          12          12          12           1
           1           1           1           1          12           1
           1           1           1          12           1           1
           1           1
Real atomic weights                        R   N=          26
  1.20000000e+01  1.20000000e+01  1.20000000e+01  3.49688527e+01  1.00782503e+00
  1.40030740e+01  1.20000000e+01  1.20000000e+01  1.20000000e+01  1.20000000e+01
  1.20000000e+01  1.00782503e+00  1.00782503e+00  1.00782503e+00  1.00782503e+00
  1.00782503e+00  1.20000000e+01  1.00782503e+00  1.00782503e+00  1.00782503e+00
  1.00782503e+00  1.20000000e+01  1.00782503e+00  1.00782503e+00  1.00782503e+00
  1.00782503e+00
Number of primitive shells                 I              272
Number of contracted shells                I              126
Pure/Cartesian d shells                    I                1
Pure/Cartesian f shells                    I                1
Highest angular momentum                   I                2
Largest degree of contraction              I                6
Shell types                                I   N=         126
           0           0           1           0           1           2
           0           1           0           0           1           0
           1           2           0           1           0           0
           1           0           1           2           0           1
           0           0           1           0           1           0
           1           2           0           1           0           0
           0           0           1           0           1           2
           0           1           0           0           1           0
           1           2           0           1           0           0
           1           0           1           2           0           1
           0           0           1           0           1           2
           0           1           0           0           1           0
           1           2           0           1           0           0
           1           0           1           2           0           1
           0           0           0           0           0           0
           0           0           0           0           0           0
           1           0           1           2           0           1
           0           0           0           0           0           0
           0           0           0           0           1           0
           1           2           0           1           0           0
           0           0           0           0           0           0
Number of primitives per shell             I   N=         126
           6           3           3           1           1           1
           1           1           6           3           3           1
           1           1           1           1           6           3
           3           1           1           1           1           1
           6           6           6           3           3           1
           1           1           1           1           3           1
           6           3           3           1           1           1
           1           1           6           3           3           1
           1           1           1           1           6           3
           3           1           1           1           1           1
           6           3           3           1           1           1
           1           1           6           3           3           1
           1           1           1           1           6           3
           3           1           1           1           1           1
           3           1           3           1           3           1
           3           1           3           1           6           3
           3           1           1           1           1           1
           3           1           3           1           3           1
           3           1           6           3           3           1
           1           1           1           1           3           1
           3           1           3           1           3           1
Shell to atom map                          I   N=         126
           1           1           1           1           1           1
           1           1           2           2           2           2
           2           2           2           2           3           3
           3           3           3           3           3           3
           4           4           4           4           4           4
           4           4           4           4           5           5
           6           6           6           6           6           6
           6           6           7           7           7           7
           7           7           7           7           8           8
           8           8           8           8           8           8
           9           9           9           9           9           9
           9           9          10          10          10          10
          10          10          10          10          11          11
          11          11          11          11          11          11
          12          12          13          13          14          14
          15          15          16          16          17          17
          17          17          17          17          17          17
          18          18          19          19          20          20
          21          21          22          22          22          22
          22          22          22          22          23          23
          24          24          25          25          26          26
Primitive exponents                        R   N=         272
  3.04752490e+03  4.57369510e+02  1.03948690e+02  2.92101550e+01  9.28666300e+00
  3.16392700e+00  7.86827240e+00  1.88128850e+00  5.44249300e-01  7.86827240e+00
  1.88128850e+00  5.44249300e-01  1.68714400e-01  1.68714400e-01  8.00000000e-01
  4.38000000e-02  4.38000000e-02  3.04752490e+03  4.57369510e+02  1.03948690e+02
  2.92101550e+01  9.28666300e+00  3.16392700e+00  7.86827240e+00  1.88128850e+00
  5.44249300e-01  7.86827240e+00  1.88128850e+00  5.44249300e-01  1.68714400e-01
  1.68714400e-01  8.00000000e-01  4.38000000e-02  4.38000000e-02  3.04752490e+03
  4.57369510e+02  1.03948690e+02  2.92101550e+01  9.28666300e+00  3.16392700e+00
  7.86827240e+00  1.88128850e+00  5.44249300e-01  7.86827240e+00  1.88128850e+00
  5.44249300e-01  1.68714400e-01  1.68714400e-01  8.00000000e-01  4.38000000e-02
  4.38000000e-02  2.51801000e+04  3.78035000e+03  8.60474000e+02  2.42145000e+02
  7.73349000e+01  2.62470000e+01  4.91765000e+02  1.16984000e+02  3.74153000e+01
  1.37834000e+01  5.45215000e+00  2.22588000e+00  4.91765000e+02  1.16984000e+02
  3.74153000e+01  1.37834000e+01  5.45215000e+00  2.22588000e+00  3.18649000e+00
  1.14427000e+00  4.20377000e-01  3.18649000e+00  1.14427000e+00  4.20377000e-01
  1.42657000e-01  1.42657000e-01  7.50000000e-01  4.83000000e-02  4.83000000e-02
  1.87311370e+01  2.82539370e+00  6.40121700e-01  1.61277800e-01  4.17351100e+03
  6.27457900e+02  1.42902100e+02  4.02343300e+01  1.28202100e+01  4.39043700e+00
  1.16263580e+01  2.71628000e+00  7.72218000e-01  1.16263580e+01  2.71628000e+00
  7.72218000e-01  2.12031300e-01  2.12031300e-01  8.00000000e-01  6.39000000e-02
  6.39000000e-02  3.04752490e+03  4.57369510e+02  1.03948690e+02  2.92101550e+01
  9.28666300e+00  3.16392700e+00  7.86827240e+00  1.88128850e+00  5.44249300e-01
  7.86827240e+00  1.88128850e+00  5.44249300e-01  1.68714400e-01  1.68714400e-01
  8.00000000e-01  4.38000000e-02  4.38000000e-02  3.04752490e+03  4.57369510e+02
  1.03948690e+02  2.92101550e+01  9.28666300e+00  3.16392700e+00  7.86827240e+00
  1.88128850e+00  5.44249300e-01  7.86827240e+00  1.88128850e+00  5.44249300e-01
  1.68714400e-01  1.68714400e-01  8.00000000e-01  4.38000000e-02  4.38000000e-02
  3.04752490e+03  4.57369510e+02  1.03948690e+02  2.92101550e+01  9.28666300e+00
  3.16392700e+00  7.86827240e+00  1.88128850e+00  5.44249300e-01  7.86827240e+00
  1.88128850e+00  5.44249300e-01  1.68714400e-01  1.68714400e-01  8.00000000e-01
  4.38000000e-02  4.38000000e-02  3.04752490e+03  4.57369510e+02  1.03948690e+02
  2.92101550e+01  9.28666300e+00  3.16392700e+00  7.86827240e+00  1.88128850e+00
  5.44249300e-01  7.86827240e+00  1.88128850e+00  5.44249300e-01  1.68714400e-01
  1.68714400e-01  8.00000000e-01  4.38000000e-02  4.38000000e-02  3.04752490e+03
  4.57369510e+02  1.03948690e+02  2.92101550e+01  9.28666300e+00  3.16392700e+00
  7.86827240e+00  1.88128850e+00  5.44249300e-01  7.86827240e+00  1.88128850e+00
  5.44249300e-01  1.68714400e-01  1.68714400e-01  8.00000000e-01  4.38000000e-02
  4.38000000e-02  1.87311370e+01  2.82539370e+00  6.40121700e-01  1.61277800e-01
  1.87311370e+01  2.82539370e+00  6.40121700e-01  1.61277800e-01  1.87311370e+01
  2.82539370e+00  6.40121700e-01  1.61277800e-01  1.87311370e+01  2.82539370e+00
  6.40121700e-01  1.61277800e-01  1.87311370e+01  2.82539370e+00  6.40121700e-01
  1.61277800e-01  3.04752490e+03  4.57369510e+02  1.03948690e+02  2.92101550e+01
  9.28666300e+00  3.16392700e+00  7.86827240e+00  1.88128850e+00  5.44249300e-01
  7.86827240e+00  1.88128850e+00  5.44249300e-01  1.68714400e-01  1.68714400e-01
  8.00000000e-01  4.38000000e-02  4.38000000e-02  1.87311370e+01  2.82539370e+00
  6.40121700e-01  1.61277800e-01  1.87311370e+01  2.82539370e+00  6.40121700e-01
  1.61277800e-01  1.87311370e+01  2.82539370e+00  6.40121700e-01  1.61277800e-01
  1.87311370e+01  2.82539370e+00  6.40121700e-01  1.61277800e-01  3.04752490e+03
  4.57369510e+02  1.03948690e+02  2.92101550e+01  9.28666300e+00  3.16392700e+00
  7.86827240e+00  1.88128850e+00  5.44249300e-01  7.86827240e+00  1.88128850e+00
  5.44249300e-01  1.68714400e-01  1.68714400e-01  8.00000000e-01  4.38000000e-02
  4.38000000e-02  1.87311370e+01  2.82539370e+00  6.40121700e-01  1.61277800e-01
  1.87311370e+01  2.82539370e+00  6.40121700e-01  1.61277800e-01  1.87311370e+01
  2.82539370e+00  6.40121700e-01  1.61277800e-01  1.87311370e+01  2.82539370e+00
  6.40121700e-01  1.61277800e-01
Contraction coefficients                   R   N=         272
  1.83470016e-03  1.40373012e-02  6.88426061e-02  2.32184421e-01  4.67941342e-01
  3.62312032e-01 -1.19332409e-01 -1.60854212e-01  1.14345648e+00  6.89990956e-02
  3.16423980e-01  7.44308252e-01  1.00000000e+00  1.00000000e+00  1.00000000e+00
  1.00000000e+00  1.00000000e+00  1.83470016e-03  1.40373012e-02  6.88426061e-02
  2.32184421e-01  4.67941342e-01  3.62312032e-01 -1.19332409e-01 -1.60854212e-01
  1.14345648e+00  6.89990956e-02  3.16423980e-01  7.44308252e-01  1.00000000e+00
  1.00000000e+00  1.00000000e+00  1.00000000e+00  1.00000000e+00  1.83470016e-03
  1.40373012e-02  6.88426061e-02  2.32184421e-01  4.67941342e-01  3.62312032e-01
 -1.19332409e-01 -1.60854212e-01  1.14345648e+00  6.89990956e-02  3.16423980e-01
  7.44308252e-01  1.00000000e+00  1.00000000e+00  1.00000000e+00  1.00000000e+00
  1.00000000e+00  1.83300031e-03  1.40340024e-02  6.90970118e-02  2.37452040e-01
  4.83034082e-01  3.39856058e-01 -2.29740199e-03 -3.07140266e-02 -1.12528097e-01
  4.50160390e-02  5.89353510e-01  4.65206403e-01  3.98940055e-03  3.03180042e-02
  1.29880018e-01  3.27951045e-01  4.53527062e-01  2.52154035e-01 -2.51831288e-01
  6.15893150e-02  1.06018542e+00 -1.42990127e-02  3.23572288e-01  7.43507661e-01
  1.00000000e+00  1.00000000e+00  1.00000000e+00  1.00000000e+00  1.00000000e+00
  3.34945995e-02  2.34726947e-01  8.13757318e-01  1.00000000e+00  1.83479944e-03
  1.39949958e-02  6.85869792e-02  2.32240930e-01  4.69069858e-01  3.60454891e-01
 -1.14961023e-01 -1.69118034e-01  1.14585223e+00  6.75800232e-02  3.23907111e-01
  7.40895255e-01  1.00000000e+00  1.00000000e+00  1.00000000e+00  1.00000000e+00
  1.00000000e+00  1.83470016e-03  1.40373012e-02  6.88426061e-02  2.32184421e-01
  4.67941342e-01  3.62312032e-01 -1.19332409e-01 -1.60854212e-01  1.14345648e+00
  6.89990956e-02  3.16423980e-01  7.44308252e-01  1.00000000e+00  1.00000000e+00
  1.00000000e+00  1.00000000e+00  1.00000000e+00  1.83470016e-03  1.40373012e-02
  6.88426061e-02  2.32184421e-01  4.67941342e-01  3.62312032e-01 -1.19332409e-01
 -1.60854212e-01  1.14345648e+00  6.89990956e-02  3.16423980e-01  7.44308252e-01
  1.00000000e+00  1.00000000e+00  1.00000000e+00  1.00000000e+00  1.00000000e+00
  1.83470016e-03  1.40373012e-02  6.88426061e-02  2.32184421e-01  4.67941342e-01
  3.62312032e-01 -1.19332409e-01 -1.60854212e-01  1.14345648e+00  6.89990956e-02
  3.16423980e-01  7.44308252e-01  1.00000000e+00  1.00000000e+00  1.00000000e+00
  1.00000000e+00  1.00000000e+00  1.83470016e-03  1.40373012e-02  6.88426061e-02
  2.32184421e-01  4.67941342e-01  3.62312032e-01 -1.19332409e-01 -1.60854212e-01
  1.14345648e+00  6.89990956e-02  3.16423980e-01  7.44308252e-01  1.00000000e+00
  1.00000000e+00  1.00000000e+00  1.00000000e+00  1.00000000e+00  1.83470016e-03
  1.40373012e-02  6.88426061e-02  2.32184421e-01  4.67941342e-01  3.62312032e-01
 -1.19332409e-01 -1.60854212e-01  1.14345648e+00  6.89990956e-02  3.16423980e-01
  7.44308252e-01  1.00000000e+00  1.00000000e+00  1.00000000e+00  1.00000000e+00
  1.00000000e+00  3.34945995e-02  2.34726947e-01  8.13757318e-01  1.00000000e+00
  3.34945995e-02  2.34726947e-01  8.13757318e-01  1.00000000e+00  3.34945995e-02
  2.34726947e-01  8.13757318e-01  1.00000000e+00  3.34945995e-02  2.34726947e-01
  8.13757318e-01  1.00000000e+00  3.34945995e-02  2.34726947e-01  8.13757318e-01
  1.00000000e+00  1.83470016e-03  1.40373012e-02  6.88426061e-02  2.32184421e-01
  4.67941342e-01  3.62312032e-01 -1.19332409e-01 -1.60854212e-01  1.14345648e+00
  6.89990956e-02  3.16423980e-01  7.44308252e-01  1.00000000e+00  1.00000000e+00
  1.00000000e+00  1.00000000e+00  1.00000000e+00  3.34945995e-02  2.34726947e-01
  8.13757318e-01  1.00000000e+00  3.34945995e-02  2.34726947e-01  8.13757318e-01
  1.00000000e+00  3.34945995e-02  2.34726947e-01  8.13757318e-01  1.00000000e+00
  3.34945995e-02  2.34726947e-01  8.13757318e-01  1.00000000e+00  1.83470016e-03
  1.40373012e-02  6.88426061e-02  2.32184421e-01  4.67941342e-01  3.62312032e-01
 -1.19332409e-01 -1.60854212e-01  1.14345648e+00  6.89990956e-02  3.16423980e-01
  7.44308252e-01  1.00000000e+00  1.00000000e+00  1.00000000e+00  1.00000000e+00
  1.00000000e+00  3.34945995e-02  2.34726947e-01  8.13757318e-01  1.00000000e+00
  3.34945995e-02  2.34726947e-01  8.13757318e-01  1.00000000e+00  3.34945995e-02
  2.34726947e-01  8.13757318e-01  1.00000000e+00  3.34945995e-02  2.34726947e-01
  8.13757318e-01  1.00000000e+00
Coordinates of each shell                  R   N=         378
  1.20671406e+00 -1.07067489e-01 -1.35473919e+00  1.20671406e+00 -1.07067489e-01
 -1.35473919e+00  1.20671406e+00 -1.07067489e-01 -1.35473919e+00  1.20671406e+00
 -1.07067489e-01 -1.35473919e+00  1.20671406e+00 -1.07067489e-01 -1.35473919e+00
  1.20671406e+00 -1.07067489e-01 -1.35473919e+00  1.20671406e+00 -1.07067489e-01
 -1.35473919e+00  1.20671406e+00 -1.07067489e-01 -1.35473919e+00 -6.58056976e-01
 -1.24704271e+00  4.73747537e-01 -6.58056976e-01 -1.24704271e+00  4.73747537e-01
 -6.58056976e-01 -1.24704271e+00  4.73747537e-01 -6.58056976e-01 -1.24704271e+00
  4.73747537e-01 -6.58056976e-01 -1.24704271e+00  4.73747537e-01 -6.58056976e-01
 -1.24704271e+00  4.73747537e-01 -6.58056976e-01 -1.24704271e+00  4.73747537e-01
 -6.58056976e-01 -1.24704271e+00  4.73747537e-01 -2.67600484e+00  5.83075295e-01
  1.50897783e+00 -2.67600484e+00  5.83075295e-01  1.50897783e+00 -2.67600484e+00
  5.83075295e-01  1.50897783e+00 -2.67600484e+00  5.83075295e-01  1.50897783e+00
 -2.67600484e+00  5.83075295e-01  1.50897783e+00 -2.67600484e+00  5.83075295e-01
  1.50897783e+00 -2.67600484e+00  5.83075295e-01  1.50897783e+00 -2.67600484e+00
  5.83075295e-01  1.50897783e+00  1.10836399e+00 -2.68978523e+00  3.15507684e+00
  1.10836399e+00 -2.68978523e+00  3.15507684e+00  1.10836399e+00 -2.68978523e+00
  3.15507684e+00  1.10836399e+00 -2.68978523e+00  3.15507684e+00  1.10836399e+00
 -2.68978523e+00  3.15507684e+00  1.10836399e+00 -2.68978523e+00  3.15507684e+00
  1.10836399e+00 -2.68978523e+00  3.15507684e+00  1.10836399e+00 -2.68978523e+00
  3.15507684e+00  1.10836399e+00 -2.68978523e+00  3.15507684e+00  1.10836399e+00
 -2.68978523e+00  3.15507684e+00 -1.61762042e+00 -2.85632842e+00 -3.91796203e-01
 -1.61762042e+00 -2.85632842e+00 -3.91796203e-01 -4.42207034e+00 -8.06552923e-01
  3.14753389e+00 -4.42207034e+00 -8.06552923e-01  3.14753389e+00 -4.42207034e+00
 -8.06552923e-01  3.14753389e+00 -4.42207034e+00 -8.06552923e-01  3.14753389e+00
 -4.42207034e+00 -8.06552923e-01  3.14753389e+00 -4.42207034e+00 -8.06552923e-01
  3.14753389e+00 -4.42207034e+00 -8.06552923e-01  3.14753389e+00 -4.42207034e+00
 -8.06552923e-01  3.14753389e+00  2.75114810e+00  1.94128359e+00 -6.78825774e-01
  2.75114810e+00  1.94128359e+00 -6.78825774e-01  2.75114810e+00  1.94128359e+00
 -6.78825774e-01  2.75114810e+00  1.94128359e+00 -6.78825774e-01  2.75114810e+00
  1.94128359e+00 -6.78825774e-01  2.75114810e+00  1.94128359e+00 -6.78825774e-01
  2.75114810e+00  1.94128359e+00 -6.78825774e-01  2.75114810e+00  1.94128359e+00
 -6.78825774e-01  4.42048550e+00  2.99400704e+00 -2.42583899e+00  4.42048550e+00
  2.99400704e+00 -2.42583899e+00  4.42048550e+00  2.99400704e+00 -2.42583899e+00
  4.42048550e+00  2.99400704e+00 -2.42583899e+00  4.42048550e+00  2.99400704e+00
 -2.42583899e+00  4.42048550e+00  2.99400704e+00 -2.42583899e+00  4.42048550e+00
  2.99400704e+00 -2.42583899e+00  4.42048550e+00  2.99400704e+00 -2.42583899e+00
  4.57837031e+00  2.01261275e+00 -4.87668553e+00  4.57837031e+00  2.01261275e+00
 -4.87668553e+00  4.57837031e+00  2.01261275e+00 -4.87668553e+00  4.57837031e+00
  2.01261275e+00 -4.87668553e+00  4.57837031e+00  2.01261275e+00 -4.87668553e+00
  4.57837031e+00  2.01261275e+00 -4.87668553e+00  4.57837031e+00  2.01261275e+00
 -4.87668553e+00  4.57837031e+00  2.01261275e+00 -4.87668553e+00  3.06198697e+00
 -3.44045766e-02 -5.56236119e+00  3.06198697e+00 -3.44045766e-02 -5.56236119e+00
  3.06198697e+00 -3.44045766e-02 -5.56236119e+00  3.06198697e+00 -3.44045766e-02
 -5.56236119e+00  3.06198697e+00 -3.44045766e-02 -5.56236119e+00  3.06198697e+00
 -3.44045766e-02 -5.56236119e+00  3.06198697e+00 -3.44045766e-02 -5.56236119e+00
  3.06198697e+00 -3.44045766e-02 -5.56236119e+00  1.39208853e+00 -1.08814430e+00
 -3.80674676e+00  1.39208853e+00 -1.08814430e+00 -3.80674676e+00  1.39208853e+00
 -1.08814430e+00 -3.80674676e+00  1.39208853e+00 -1.08814430e+00 -3.80674676e+00
  1.39208853e+00 -1.08814430e+00 -3.80674676e+00  1.39208853e+00 -1.08814430e+00
 -3.80674676e+00  1.39208853e+00 -1.08814430e+00 -3.80674676e+00  1.39208853e+00
 -1.08814430e+00 -3.80674676e+00  2.67051402e+00  2.69222312e+00  1.23076361e+00
  2.67051402e+00  2.69222312e+00  1.23076361e+00  2.20962300e-01 -2.68808100e+00
 -4.34915307e+00  2.20962300e-01 -2.68808100e+00 -4.34915307e+00  5.60776244e+00
  4.57659909e+00 -1.87312442e+00  5.60776244e+00  4.57659909e+00 -1.87312442e+00
  5.88353389e+00  2.83282903e+00 -6.23421207e+00  5.88353389e+00  2.83282903e+00
 -6.23421207e+00  3.17966451e+00 -8.20036472e-01 -7.45660226e+00  3.17966451e+00
 -8.20036472e-01 -7.45660226e+00 -4.12256808e+00  1.78998633e+00 -7.03089247e-01
 -4.12256808e+00  1.78998633e+00 -7.03089247e-01 -4.12256808e+00  1.78998633e+00
 -7.03089247e-01 -4.12256808e+00  1.78998633e+00 -7.03089247e-01 -4.12256808e+00
  1.78998633e+00 -7.03089247e-01 -4.12256808e+00  1.78998633e+00 -7.03089247e-01
 -4.12256808e+00  1.78998633e+00 -7.03089247e-01 -4.12256808e+00  1.78998633e+00
 -7.03089247e-01 -1.69220801e+00  2.10249680e+00  2.55924891e+00 -1.69220801e+00
  2.10249680e+00  2.55924891e+00 -5.06768998e+00  3.31425641e-01 -1.83085554e+00
 -5.06768998e+00  3.31425641e-01 -1.83085554e+00 -2.85839908e+00  2.87216507e+00
 -1.92791965e+00 -2.85839908e+00  2.87216507e+00 -1.92791965e+00 -5.57114797e+00
  3.08541147e+00  4.44988056e-03 -5.57114797e+00  3.08541147e+00  4.44988056e-03
 -6.13451994e+00  7.78637083e-01  4.62816902e+00 -6.13451994e+00  7.78637083e-01
  4.62816902e+00 -6.13451994e+00  7.78637083e-01  4.62816902e+00 -6.13451994e+00
  7.78637083e-01  4.62816902e+00 -6.13451994e+00  7.78637083e-01  4.62816902e+00
 -6.13451994e+00  7.78637083e-01  4.62816902e+00 -6.13451994e+00  7.78637083e-01
  4.62816902e+00 -6.13451994e+00  7.78637083e-01  4.62816902e+00 -3.39319463e+00
 -1.89305613e+00  4.35513269e+00 -3.39319463e+00 -1.89305613e+00  4.35513269e+00
 -7.58572499e+00  1.62040333e+00  3.41763901e+00 -7.58572499e+00  1.62040333e+00
  3.41763901e+00 -5.16813788e+00  2.32466265e+00  5.65160376e+00 -5.16813788e+00
  2.32466265e+00  5.65160376e+00 -7.10365029e+00 -4.10855885e-01  6.01545560e+00
 -7.10365029e+00 -4.10855885e-01  6.01545560e+00
Total Energy                               R     -9.044574903593979e+02
Alpha Orbital Energies                     R   N=         260
 -1.01537444e+02 -1.43283551e+01 -1.02617188e+01 -1.02346034e+01 -1.02165678e+01
 -1.02088038e+01 -1.02074207e+01 -1.02066743e+01 -1.02062687e+01 -1.02059274e+01
 -1.02053136e+01 -1.01847220e+01 -9.45262174e+00 -7.21627434e+00 -7.20712191e+00
 -7.20694150e+00 -9.20016647e-01 -8.76819876e-01 -8.42759201e-01 -7.78703386e-01
 -7.59896908e-01 -7.52533763e-01 -6.87254499e-01 -6.67012151e-01 -6.23024170e-01
 -6.05517740e-01 -5.76337085e-01 -5.29352572e-01 -5.08999805e-01 -4.83313909e-01
 -4.66012627e-01 -4.62376810e-01 -4.52188048e-01 -4.34908418e-01 -4.22540957e-01
 -4.18564022e-01 -4.05370735e-01 -4.02593211e-01 -3.79828867e-01 -3.70943067e-01
 -3.68818101e-01 -3.59590643e-01 -3.54604034e-01 -3.49450091e-01 -3.05402897e-01
 -3.00328167e-01 -2.66194117e-01 -2.59395143e-01 -2.33249865e-01 -3.88891432e-02
 -2.26045708e-02 -3.62194768e-04  8.40563739e-03  1.19366637e-02  1.54364015e-02
  2.67422590e-02  3.18081786e-02  3.40233987e-02  3.97301064e-02  5.02570713e-02
  5.56088547e-02  5.78203470e-02  6.44574857e-02  7.15227333e-02  7.49366178e-02
  8.11536164e-02  8.40757905e-02  9.11090539e-02  1.00122111e-01  1.05448758e-01
  1.09851991e-01  1.14480464e-01  1.18520817e-01  1.21399347e-01  1.28503282e-01
  1.35222110e-01  1.40257848e-01  1.44023983e-01  1.47480336e-01  1.53898027e-01
  1.54514583e-01  1.57942520e-01  1.67724150e-01  1.71617639e-01  1.82357837e-01
  1.87499237e-01  1.90670950e-01  1.93097021e-01  2.00541107e-01  2.05797327e-01
  2.09777020e-01  2.12136076e-01  2.14369580e-01  2.25072244e-01  2.26369087e-01
  2.28920733e-01  2.30371533e-01  2.36055768e-01  2.39380612e-01  2.47637517e-01
  2.54203697e-01  2.57216516e-01  2.61234896e-01  2.64997826e-01  2.74147619e-01
  2.75907247e-01  2.79461560e-01  2.84852584e-01  2.90635413e-01  3.01718645e-01
  3.05345341e-01  3.12601285e-01  3.26383254e-01  3.30241901e-01  3.37667980e-01
  3.46566474e-01  3.51841471e-01  3.62904675e-01  3.71925067e-01  3.81287249e-01
  3.85139933e-01  3.93551495e-01  4.06268970e-01  4.41291477e-01  5.60640293e-01
  5.88238013e-01  5.97097290e-01  6.19383499e-01  6.43806236e-01  6.51153559e-01
  6.52672786e-01  6.64139937e-01  6.72662415e-01  6.89660435e-01  6.91656809e-01
  6.97487287e-01  7.07744753e-01  7.14320085e-01  7.21270246e-01  7.27657856e-01
  7.39742264e-01  7.48250224e-01  7.52135443e-01  7.61283242e-01  7.70560545e-01
  7.79884960e-01  7.90080226e-01  8.10529079e-01  8.21079383e-01  8.31508955e-01
  8.60070243e-01  8.70918603e-01  8.83982361e-01  9.01130534e-01  9.07595409e-01
  9.14416661e-01  9.28713513e-01  9.32243280e-01  9.40587544e-01  9.57396269e-01
  9.62770364e-01  9.76847895e-01  9.99090092e-01  1.00649217e+00  1.01583325e+00
  1.02266150e+00  1.02810271e+00  1.04248512e+00  1.05055303e+00  1.06227382e+00
  1.07361240e+00  1.09127347e+00  1.09453290e+00  1.10163577e+00  1.12997701e+00
  1.14432998e+00  1.15797325e+00  1.16358959e+00  1.18491583e+00  1.19753192e+00
  1.22670724e+00  1.23338165e+00  1.26164704e+00  1.28896944e+00  1.30158960e+00
  1.34829076e+00  1.36484506e+00  1.37963473e+00  1.41247500e+00  1.43778100e+00
  1.45007170e+00  1.47312637e+00  1.48758238e+00  1.49716606e+00  1.50601505e+00
  1.54767146e+00  1.56072700e+00  1.64604118e+00  1.67943135e+00  1.71636830e+00
  1.76973510e+00  1.79858570e+00  1.81709327e+00  1.82830662e+00  1.86188334e+00
  1.89041804e+00  1.90994709e+00  1.91089460e+00  1.95776196e+00  1.96946951e+00
  1.98065761e+00  1.99085188e+00  2.00813116e+00  2.04874151e+00  2.06461838e+00
  2.07918262e+00  2.10085559e+00  2.13757477e+00  2.14194191e+00  2.15444422e+00
  2.18587767e+00  2.19680658e+00  2.22219916e+00  2.24870808e+00  2.26734339e+00
  2.29628976e+00  2.30270178e+00  2.33779907e+00  2.33919193e+00  2.35762488e+00
  2.38710456e+00  2.44198985e+00  2.49617301e+00  2.54425294e+00  2.58952231e+00
  2.60576467e+00  2.61865662e+00  2.63574448e+00  2.72284232e+00  2.74136136e+00
  2.75687657e+00  2.77532752e+00  2.78060414e+00  2.81333117e+00  2.87588213e+00
  2.96495408e+00  3.06601783e+00  3.39215000e+00  4.13105860e+00  4.22984422e+00
  4.24202510e+00  4.26101319e+00  4.32548319e+00  4.33543438e+00  4.37174729e+00
  4.38244468e+00  4.42154008e+00  4.49660510e+00  4.60955325e+00  4.71429023e+00
Alpha MO coefficients                      R   N=       67600
 -8.84089272e-07  2.48234654e-05  4.88419945e-06  1.04624859e-05 -3.04698071e-05
 -6.41219019e-05  2.49289276e-05  1.77396895e-04  3.16268576e-04 -1.92944030e-06
 -1.46234496e-05 -3.39205666e-05  7.02595851e-06  2.83956460e-06  4.44544200e-06
 -2.03405379e-04  1.54931015e-03  3.20834441e-03  2.88274179e-03 -9.98193596e-06
  9.13614860e-06  2.88398670e-05 -2.33875759e-05  5.04182549e-05 -8.13771493e-06
 -4.01005119e-05 -1.23309293e-04 -2.38344143e-05 -1.11334099e-05 -1.32561768e-05
  2.32826455e-06 -8.64255229e-06  4.22997021e-06 -7.03399526e-07  3.50971326e-03
  5.87824075e-04  2.29229403e-04 -7.38275876e-05 -2.18461027e-06  1.59925064e-05
 -1.07256015e-05  1.01461987e-05 -1.40712744e-05  6.62507409e-05 -8.15405669e-05
 -3.18617676e-05  1.68994825e-04 -2.22575744e-05 -1.35561638e-05 -9.88068724e-06
  1.39028029e-05 -1.39870875e-05 -1.51096715e-06 -5.23269648e-05 -3.37773676e-05
 -1.53952050e-05 -5.05924059e-05  9.95997863e-01  1.51586203e-02 -2.23661201e-05
  1.66631935e-05 -2.88347805e-05 -2.10373195e-02  5.71216744e-06 -2.38138364e-07
  5.95455204e-06  1.68170219e-03  5.77463630e-05 -8.04825445e-05  1.06680730e-04
  7.53345020e-03  7.53508423e-03  7.52364389e-03  6.02500873e-06 -1.10513070e-05
  1.10220319e-05 -1.23909672e-03  9.76592327e-05 -1.35284512e-04  1.67412032e-04
 -2.44334928e-05 -1.72898722e-04  6.97289060e-06  3.46627741e-05  6.62247551e-06
 -2.51730214e-06  1.54068015e-06 -2.14269315e-04 -1.05954785e-04 -2.95983476e-05
  2.14168749e-05 -2.11788115e-07  1.39677167e-05  1.85506197e-05  1.96932338e-06
  9.44404419e-06  8.19441624e-07 -5.54055585e-04 -9.34779457e-05 -6.64898976e-05