Generated by Psi4
     FORCE                           RHF                       TESTBAS
Number of atoms                            I               30
Charge                                     I                0
Multiplicity                               I                1
Number of electrons                        I              156
Number of alpha electrons                  I               78
Number of beta electrons                   I               78
Number of basis functions                  I              408
Number of independent functions            I              408
Atomic numbers                             I   N=          30
           6           7           6           7           6           6
           6           6           6           1           6           6
           6           6           6           6           1           1
           1           1           8          17           1           1
          17           1           6           6           1           1
Nuclear charges                            R   N=          30
  6.00000000e+00  7.00000000e+00  6.00000000e+00  7.00000000e+00  6.00000000e+00
  6.00000000e+00  6.00000000e+00  6.00000000e+00  6.00000000e+00  1.00000000e+00
  6.00000000e+00  6.00000000e+00  6.00000000e+00  6.00000000e+00  6.00000000e+00
  6.00000000e+00  1.00000000e+00  1.00000000e+00  1.00000000e+00  1.00000000e+00
  8.00000000e+00  1.70000000e+01  1.00000000e+00  1.00000000e+00  1.70000000e+01
  1.00000000e+00  6.00000000e+00  6.00000000e+00  1.00000000e+00  1.00000000e+00
Current cartesian coordinates              R   N=          90
 -2.49064688e+00  3.47331221e+00 -7.31785430e-02 -1.35600586e+00  5.55871993e+00
 -1.26358845e+00 -1.09672131e-01  5.61860989e+00 -3.57183567e+00  2.03928161e+00
  1.49574079e+00 -3.17739093e+00  3.82803436e-01  3.03550822e+00 -4.74543873e+00
  1.20717509e+00  5.80261935e-01 -1.09519871e+00 -1.32384544e+00  1.06968594e+00
  3.47742832e-02 -4.85994015e+00 -4.77262648e-01  2.53175433e+00 -2.55163470e+00
 -8.86384085e-01  1.35732965e+00 -1.66779676e+00 -2.73264502e+00  1.46467290e+00
  2.97770286e+00 -1.08592606e+00  3.69802893e-01  3.74872972e+00 -3.23548676e-01
  2.79261949e+00  5.48679840e+00 -1.72396555e+00  4.19054857e+00  6.46626703e+00
 -3.96108569e+00  3.18753226e+00  5.69756886e+00 -4.78488325e+00  8.04521479e-01
  3.96994195e+00 -3.35284017e+00 -5.86944638e-01  2.98117940e+00  1.41766231e+00
  3.56614799e+00  6.07041340e+00 -1.07422625e+00  6.04817490e+00  7.81786071e+00
 -5.07698422e+00  4.25731611e+00  6.42029383e+00 -6.53416421e+00  1.54666422e-02
  5.05212164e-01  7.62024018e+00 -4.53321452e+00 -6.36013190e+00 -2.96543895e+00
  4.13413183e+00  1.29044721e+00  3.35386794e+00 -6.56734111e+00 -1.44747206e+00
  2.09115684e+00 -5.06099499e+00  3.00398331e+00 -4.54780904e+00 -3.53320071e+00
 -1.88537987e+00  7.29967987e+00 -6.55874082e-01 -4.80854679e+00  3.85460210e+00
  1.17052875e+00 -5.99561994e+00  1.90795339e+00  2.47032997e+00 -5.69135894e+00
  5.70849448e+00  1.09728124e+00 -7.78900988e+00  2.22687445e+00  3.41198677e+00
Integer atomic weights                     I   N=          30
          12          14          12          14          12          12
          12          12          12           1          12          12
          12          12          12          12           1           1
           1           1          15          34           1           1
          34           1          12          12           1           1
Real atomic weights                        R   N=          30
  1.20000000e+01  1.40030740e+01  1.20000000e+01  1.40030740e+01  1.20000000e+01
  1.20000000e+01  1.20000000e+01  1.20000000e+01  1.20000000e+01  1.00782503e+00
  1.20000000e+01  1.20000000e+01  1.20000000e+01  1.20000000e+01  1.20000000e+01
  1.20000000e+01  1.00782503e+00  1.00782503e+00  1.00782503e+00  1.00782503e+00
  1.59949146e+01  3.49688527e+01  1.00782503e+00  1.00782503e+00  3.49688527e+01
  1.00782503e+00  1.20000000e+01  1.20000000e+01  1.00782503e+00  1.00782503e+00
Number of primitive shells                 I              404
Number of contracted shells                I              184
Pure/Cartesian d shells                    I                1
Pure/Cartesian f shells                    I                1
Highest angular momentum                   I                2
Largest degree of contraction              I                6
Shell types                                I   N=         184
           0           0           1           0           1           2
           0           1           0           0           1           0
           1           2           0           1           0           0
           1           0           1           2           0           1
           0           0           1           0           1           2
           0           1           0           0           1           0
           1           2           0           1           0           0
           1           0           1           2           0           1
           0           0           1           0           1           2
           0           1           0           0           1           0
           1           2           0           1           0           0
           1           0           1           2           0           1
           0           0           0           0           1           0
           1           2           0           1           0           0
           1           0           1           2           0           1
           0           0           1           0           1           2
           0           1           0           0           1           0
           1           2           0           1           0           0
           1           0           1           2           0           1
           0           0           1           0           1           2
           0           1           0           0           0           0
           0           0           0           0           0           0
           1           0           1           2           0           1
           0           0           1           0           1           0
           1           2           0           1           0           0
           0           0           0           0           1           0
           1           0           1           2           0           1
           0           0           0           0           1           0
           1           2           0           1           0           0
           1           0           1           2           0           1
           0           0           0           0
Number of primitives per shell             I   N=         184
           6           3           3           1           1           1
           1           1           6           3           3           1
           1           1           1           1           6           3
           3           1           1           1           1           1
           6           3           3           1           1           1
           1           1           6           3           3           1
           1           1           1           1           6           3
           3           1           1           1           1           1
           6           3           3           1           1           1
           1           1           6           3           3           1
           1           1           1           1           6           3
           3           1           1           1           1           1
           3           1           6           3           3           1
           1           1           1           1           6           3
           3           1           1           1           1           1
           6           3           3           1           1           1
           1           1           6           3           3           1
           1           1           1           1           6           3
           3           1           1           1           1           1
           6           3           3           1           1           1
           1           1           3           1           3           1
           3           1           3           1           6           3
           3           1           1           1           1           1
           6           6           6           3           3           1
           1           1           1           1           3           1
           3           1           6           6           6           3
           3           1           1           1           1           1
           3           1           6           3           3           1
           1           1           1           1           6           3
           3           1           1           1           1           1
           3           1           3           1
Shell to atom map                          I   N=         184
           1           1           1           1           1           1
           1           1           2           2           2           2
           2           2           2           2           3           3
           3           3           3           3           3           3
           4           4           4           4           4           4
           4           4           5           5           5           5
           5           5           5           5           6           6
           6           6           6           6           6           6
           7           7           7           7           7           7
           7           7           8           8           8           8
           8           8           8           8           9           9
           9           9           9           9           9           9
          10          10          11          11          11          11
          11          11          11          11          12          12
          12          12          12          12          12          12
          13          13          13          13          13          13
          13          13          14          14          14          14
          14          14          14          14          15          15
          15          15          15          15          15          15
          16          16          16          16          16          16
          16          16          17          17          18          18
          19          19          20          20          21          21
          21          21          21          21          21          21
          22          22          22          22          22          22
          22          22          22          22          23          23
          24          24          25          25          25          25
          25          25          25          25          25          25
          26          26          27          27          27          27
          27          27          27          27          28          28
          28          28          28          28          28          28
          29          29          30          30
Primitive exponents                        R   N=         404
  3.04752490e+03  4.57369510e+02  1.03948690e+02  2.92101550e+01  9.28666300e+00
  3.16392700e+00  7.86827240e+00  1.88128850e+00  5.44249300e-01  7.86827240e+00
  1.88128850e+00  5.44249300e-01  1.68714400e-01  1.68714400e-01  8.00000000e-01
  4.38000000e-02  4.38000000e-02  4.17351100e+03  6.27457900e+02  1.42902100e+02
  4.02343300e+01  1.28202100e+01  4.39043700e+00  1.16263580e+01  2.71628000e+00
  7.72218000e-01  1.16263580e+01  2.71628000e+00  7.72218000e-01  2.12031300e-01
  2.12031300e-01  8.00000000e-01  6.39000000e-02  6.39000000e-02  3.04752490e+03
  4.57369510e+02  1.03948690e+02  2.92101550e+01  9.28666300e+00  3.16392700e+00
  7.86827240e+00  1.88128850e+00  5.44249300e-01  7.86827240e+00  1.88128850e+00
  5.44249300e-01  1.68714400e-01  1.68714400e-01  8.00000000e-01  4.38000000e-02
  4.38000000e-02  4.17351100e+03  6.27457900e+02  1.42902100e+02  4.02343300e+01
  1.28202100e+01  4.39043700e+00  1.16263580e+01  2.71628000e+00  7.72218000e-01
  1.16263580e+01  2.71628000e+00  7.72218000e-01  2.12031300e-01  2.12031300e-01
  8.00000000e-01  6.39000000e-02  6.39000000e-02  3.04752490e+03  4.57369510e+02
  1.03948690e+02  2.92101550e+01  9.28666300e+00  3.16392700e+00  7.86827240e+00
  1.88128850e+00  5.44249300e-01  7.86827240e+00  1.88128850e+00  5.44249300e-01
  1.68714400e-01  1.68714400e-01  8.00000000e-01  4.38000000e-02  4.38000000e-02
  3.04752490e+03  4.57369510e+02  1.03948690e+02  2.92101550e+01  9.28666300e+00
  3.16392700e+00  7.86827240e+00  1.88128850e+00  5.44249300e-01  7.86827240e+00
  1.88128850e+00  5.44249300e-01  1.68714400e-01  1.68714400e-01  8.00000000e-01
  4.38000000e-02  4.38000000e-02  3.04752490e+03  4.57369510e+02  1.03948690e+02
  2.92101550e+01  9.28666300e+00  3.16392700e+00  7.86827240e+00  1.88128850e+00
  5.44249300e-01  7.86827240e+00  1.88128850e+00  5.44249300e-01  1.68714400e-01
  1.68714400e-01  8.00000000e-01  4.38000000e-02  4.38000000e-02  3.04752490e+03
  4.57369510e+02  1.03948690e+02  2.92101550e+01  9.28666300e+00  3.16392700e+00
  7.86827240e+00  1.88128850e+00  5.44249300e-01  7.86827240e+00  1.88128850e+00
  5.44249300e-01  1.68714400e-01  1.68714400e-01  8.00000000e-01  4.38000000e-02
  4.38000000e-02  3.04752490e+03  4.57369510e+02  1.03948690e+02  2.92101550e+01
  9.28666300e+00  3.16392700e+00  7.86827240e+00  1.88128850e+00  5.44249300e-01
  7.86827240e+00  1.88128850e+00  5.44249300e-01  1.68714400e-01  1.68714400e-01
  8.00000000e-01  4.38000000e-02  4.38000000e-02  1.87311370e+01  2.82539370e+00
  6.40121700e-01  1.61277800e-01  3.04752490e+03  4.57369510e+02  1.03948690e+02
  2.92101550e+01  9.28666300e+00  3.16392700e+00  7.86827240e+00  1.88128850e+00
  5.44249300e-01  7.86827240e+00  1.88128850e+00  5.44249300e-01  1.68714400e-01
  1.68714400e-01  8.00000000e-01  4.38000000e-02  4.38000000e-02  3.04752490e+03
  4.57369510e+02  1.03948690e+02  2.92101550e+01  9.28666300e+00  3.16392700e+00
  7.86827240e+00  1.88128850e+00  5.44249300e-01  7.86827240e+00  1.88128850e+00
  5.44249300e-01  1.68714400e-01  1.68714400e-01  8.00000000e-01  4.38000000e-02
  4.38000000e-02  3.04752490e+03  4.57369510e+02  1.03948690e+02  2.92101550e+01
  9.28666300e+00  3.16392700e+00  7.86827240e+00  1.88128850e+00  5.44249300e-01
  7.86827240e+00  1.88128850e+00  5.44249300e-01  1.68714400e-01  1.68714400e-01
  8.00000000e-01  4.38000000e-02  4.38000000e-02  3.04752490e+03  4.57369510e+02
  1.03948690e+02  2.92101550e+01  9.28666300e+00  3.16392700e+00  7.86827240e+00
  1.88128850e+00  5.44249300e-01  7.86827240e+00  1.88128850e+00  5.44249300e-01
  1.68714400e-01  1.68714400e-01  8.00000000e-01  4.38000000e-02  4.38000000e-02
  3.04752490e+03  4.57369510e+02  1.03948690e+02  2.92101550e+01  9.28666300e+00
  3.16392700e+00  7.86827240e+00  1.88128850e+00  5.44249300e-01  7.86827240e+00
  1.88128850e+00  5.44249300e-01  1.68714400e-01  1.68714400e-01  8.00000000e-01
  4.38000000e-02  4.38000000e-02  3.04752490e+03  4.57369510e+02  1.03948690e+02
  2.92101550e+01  9.28666300e+00  3.16392700e+00  7.86827240e+00  1.88128850e+00
  5.44249300e-01  7.86827240e+00  1.88128850e+00  5.44249300e-01  1.68714400e-01
  1.68714400e-01  8.00000000e-01  4.38000000e-02  4.38000000e-02  1.87311370e+01
  2.82539370e+00  6.40121700e-01  1.61277800e-01  1.87311370e+01  2.82539370e+00
  6.40121700e-01  1.61277800e-01  1.87311370e+01  2.82539370e+00  6.40121700e-01
  1.61277800e-01  1.87311370e+01  2.82539370e+00  6.40121700e-01  1.61277800e-01
  5.48467170e+03  8.25234950e+02  1.88046960e+02  5.29645000e+01  1.68975700e+01
  5.79963530e+00  1.55396160e+01  3.59993360e+00  1.01376180e+00  1.55396160e+01
  3.59993360e+00  1.01376180e+00  2.70005800e-01  2.70005800e-01  8.00000000e-01
  8.45000000e-02  8.45000000e-02  2.51801000e+04  3.78035000e+03  8.60474000e+02
  2.42145000e+02  7.73349000e+01  2.62470000e+01  4.91765000e+02  1.16984000e+02
  3.74153000e+01  1.37834000e+01  5.45215000e+00  2.22588000e+00  4.91765000e+02
  1.16984000e+02  3.74153000e+01  1.37834000e+01  5.45215000e+00  2.22588000e+00
  3.18649000e+00  1.14427000e+00  4.20377000e-01  3.18649000e+00  1.14427000e+00
  4.20377000e-01  1.42657000e-01  1.42657000e-01  7.50000000e-01  4.83000000e-02
  4.83000000e-02  1.87311370e+01  2.82539370e+00  6.40121700e-01  1.61277800e-01
  1.87311370e+01  2.82539370e+00  6.40121700e-01  1.61277800e-01  2.51801000e+04
  3.78035000e+03  8.60474000e+02  2.42145000e+02  7.73349000e+01  2.62470000e+01
  4.91765000e+02  1.16984000e+02  3.74153000e+01  1.37834000e+01  5.45215000e+00
  2.22588000e+00  4.91765000e+02  1.16984000e+02  3.74153000e+01  1.37834000e+01
  5.45215000e+00  2.22588000e+00  3.18649000e+00  1.14427000e+00  4.20377000e-01
  3.18649000e+00  1.14427000e+00  4.20377000e-01  1.42657000e-01  1.42657000e-01
  7.50000000e-01  4.83000000e-02  4.83000000e-02  1.87311370e+01  2.82539370e+00
  6.40121700e-01  1.61277800e-01  3.04752490e+03  4.57369510e+02  1.03948690e+02
  2.92101550e+01  9.28666300e+00  3.16392700e+00  7.86827240e+00  1.88128850e+00
  5.44249300e-01  7.86827240e+00  1.88128850e+00  5.44249300e-01  1.68714400e-01
  1.68714400e-01  8.00000000e-01  4.38000000e-02  4.38000000e-02  3.04752490e+03
  4.57369510e+02  1.03948690e+02  2.92101550e+01  9.28666300e+00  3.16392700e+00
  7.86827240e+00  1.88128850e+00  5.44249300e-01  7.86827240e+00  1.88128850e+00
  5.44249300e-01  1.68714400e-01  1.68714400e-01  8.00000000e-01  4.38000000e-02
  4.38000000e-02  1.87311370e+01  2.82539370e+00  6.40121700e-01  1.61277800e-01
  1.87311370e+01  2.82539370e+00  6.40121700e-01  1.61277800e-01
Contraction coefficients                   R   N=         404
  1.83470016e-03  1.40373012e-02  6.88426061e-02  2.32184421e-01  4.67941342e-01
  3.62312032e-01 -1.19332409e-01 -1.60854212e-01  1.14345648e+00  6.89990956e-02
  3.16423980e-01  7.44308252e-01  1.00000000e+00  1.00000000e+00  1.00000000e+00
  1.00000000e+00  1.00000000e+00  1.83479944e-03  1.39949958e-02  6.85869792e-02
  2.32240930e-01  4.69069858e-01  3.60454891e-01 -1.14961023e-01 -1.69118034e-01
  1.14585223e+00  6.75800232e-02  3.23907111e-01  7.40895255e-01  1.00000000e+00
  1.00000000e+00  1.00000000e+00  1.00000000e+00  1.00000000e+00  1.83470016e-03
  1.40373012e-02  6.88426061e-02  2.32184421e-01  4.67941342e-01  3.62312032e-01
 -1.19332409e-01 -1.60854212e-01  1.14345648e+00  6.89990956e-02  3.16423980e-01
  7.44308252e-01  1.00000000e+00  1.00000000e+00  1.00000000e+00  1.00000000e+00
  1.00000000e+00  1.83479944e-03  1.39949958e-02  6.85869792e-02  2.32240930e-01
  4.69069858e-01  3.60454891e-01 -1.14961023e-01 -1.69118034e-01  1.14585223e+00
  6.75800232e-02  3.23907111e-01  7.40895255e-01  1.00000000e+00  1.00000000e+00
  1.00000000e+00  1.00000000e+00  1.00000000e+00  1.83470016e-03  1.40373012e-02
  6.88426061e-02  2.32184421e-01  4.67941342e-01  3.62312032e-01 -1.19332409e-01
 -1.60854212e-01  1.14345648e+00  6.89990956e-02  3.16423980e-01  7.44308252e-01
  1.00000000e+00  1.00000000e+00  1.00000000e+00  1.00000000e+00  1.00000000e+00
  1.83470016e-03  1.40373012e-02  6.88426061e-02  2.32184421e-01  4.67941342e-01
  3.62312032e-01 -1.19332409e-01 -1.60854212e-01  1.14345648e+00  6.89990956e-02
  3.16423980e-01  7.44308252e-01  1.00000000e+00  1.00000000e+00  1.00000000e+00
  1.00000000e+00  1.00000000e+00  1.83470016e-03  1.40373012e-02  6.88426061e-02
  2.32184421e-01  4.67941342e-01  3.62312032e-01 -1.19332409e-01 -1.60854212e-01
  1.14345648e+00  6.89990956e-02  3.16423980e-01  7.44308252e-01  1.00000000e+00
  1.00000000e+00  1.00000000e+00  1.00000000e+00  1.00000000e+00  1.83470016e-03
  1.40373012e-02  6.88426061e-02  2.32184421e-01  4.67941342e-01  3.62312032e-01
 -1.19332409e-01 -1.60854212e-01  1.14345648e+00  6.89990956e-02  3.16423980e-01
  7.44308252e-01  1.00000000e+00  1.00000000e+00  1.00000000e+00  1.00000000e+00
  1.00000000e+00  1.83470016e-03  1.40373012e-02  6.88426061e-02  2.32184421e-01
  4.67941342e-01  3.62312032e-01 -1.19332409e-01 -1.60854212e-01  1.14345648e+00
  6.89990956e-02  3.16423980e-01  7.44308252e-01  1.00000000e+00  1.00000000e+00
  1.00000000e+00  1.00000000e+00  1.00000000e+00  3.34945995e-02  2.34726947e-01
  8.13757318e-01  1.00000000e+00  1.83470016e-03  1.40373012e-02  6.88426061e-02
  2.32184421e-01  4.67941342e-01  3.62312032e-01 -1.19332409e-01 -1.60854212e-01
  1.14345648e+00  6.89990956e-02  3.16423980e-01  7.44308252e-01  1.00000000e+00
  1.00000000e+00  1.00000000e+00  1.00000000e+00  1.00000000e+00  1.83470016e-03
  1.40373012e-02  6.88426061e-02  2.32184421e-01  4.67941342e-01  3.62312032e-01
 -1.19332409e-01 -1.60854212e-01  1.14345648e+00  6.89990956e-02  3.16423980e-01
  7.44308252e-01  1.00000000e+00  1.00000000e+00  1.00000000e+00  1.00000000e+00
  1.00000000e+00  1.83470016e-03  1.40373012e-02  6.88426061e-02  2.32184421e-01
  4.67941342e-01  3.62312032e-01 -1.19332409e-01 -1.60854212e-01  1.14345648e+00
  6.89990956e-02  3.16423980e-01  7.44308252e-01  1.00000000e+00  1.00000000e+00
  1.00000000e+00  1.00000000e+00  1.00000000e+00  1.83470016e-03  1.40373012e-02
  6.88426061e-02  2.32184421e-01  4.67941342e-01  3.62312032e-01 -1.19332409e-01
 -1.60854212e-01  1.14345648e+00  6.89990956e-02  3.16423980e-01  7.44308252e-01
  1.00000000e+00  1.00000000e+00  1.00000000e+00  1.00000000e+00  1.00000000e+00
  1.83470016e-03  1.40373012e-02  6.88426061e-02  2.32184421e-01  4.67941342e-01
  3.62312032e-01 -1.19332409e-01 -1.60854212e-01  1.14345648e+00  6.89990956e-02
  3.16423980e-01  7.44308252e-01  1.00000000e+00  1.00000000e+00  1.00000000e+00
  1.00000000e+00  1.00000000e+00  1.83470016e-03  1.40373012e-02  6.88426061e-02
  2.32184421e-01  4.67941342e-01  3.62312032e-01 -1.19332409e-01 -1.60854212e-01
  1.14345648e+00  6.89990956e-02  3.16423980e-01  7.44308252e-01  1.00000000e+00
  1.00000000e+00  1.00000000e+00  1.00000000e+00  1.00000000e+00  3.34945995e-02
  2.34726947e-01  8.13757318e-01  1.00000000e+00  3.34945995e-02  2.34726947e-01
  8.13757318e-01  1.00000000e+00  3.34945995e-02  2.34726947e-01  8.13757318e-01
  1.00000000e+00  3.34945995e-02  2.34726947e-01  8.13757318e-01  1.00000000e+00
  1.83109981e-03  1.39500985e-02  6.84450927e-02  2.32714275e-01  4.70192950e-01
  3.58520862e-01 -1.10777504e-01 -1.48026305e-01  1.13076704e+00  7.08742995e-02
  3.39752798e-01  7.27158595e-01  1.00000000e+00  1.00000000e+00  1.00000000e+00
  1.00000000e+00  1.00000000e+00  1.83300031e-03  1.40340024e-02  6.90970118e-02
  2.37452040e-01  4.83034082e-01  3.39856058e-01 -2.29740199e-03 -3.07140266e-02
 -1.12528097e-01  4.50160390e-02  5.89353510e-01  4.65206403e-01  3.98940055e-03
  3.03180042e-02  1.29880018e-01  3.27951045e-01  4.53527062e-01  2.52154035e-01
 -2.51831288e-01  6.15893150e-02  1.06018542e+00 -1.42990127e-02  3.23572288e-01
  7.43507661e-01  1.00000000e+00  1.00000000e+00  1.00000000e+00  1.00000000e+00
  1.00000000e+00  3.34945995e-02  2.34726947e-01  8.13757318e-01  1.00000000e+00
  3.34945995e-02  2.34726947e-01  8.13757318e-01  1.00000000e+00  1.83300031e-03
  1.40340024e-02  6.90970118e-02  2.37452040e-01  4.83034082e-01  3.39856058e-01
 -2.29740199e-03 -3.07140266e-02 -1.12528097e-01  4.50160390e-02  5.89353510e-01
  4.65206403e-01  3.98940055e-03  3.03180042e-02  1.29880018e-01  3.27951045e-01
  4.53527062e-01  2.52154035e-01 -2.51831288e-01  6.15893150e-02  1.06018542e+00
 -1.42990127e-02  3.23572288e-01  7.43507661e-01  1.00000000e+00  1.00000000e+00
  1.00000000e+00  1.00000000e+00  1.00000000e+00  3.34945995e-02  2.34726947e-01
  8.13757318e-01  1.00000000e+00  1.83470016e-03  1.40373012e-02  6.88426061e-02
  2.32184421e-01  4.67941342e-01  3.62312032e-01 -1.19332409e-01 -1.60854212e-01
  1.14345648e+00  6.89990956e-02  3.16423980e-01  7.44308252e-01  1.00000000e+00
  1.00000000e+00  1.00000000e+00  1.00000000e+00  1.00000000e+00  1.83470016e-03
  1.40373012e-02  6.88426061e-02  2.32184421e-01  4.67941342e-01  3.62312032e-01
 -1.19332409e-01 -1.60854212e-01  1.14345648e+00  6.89990956e-02  3.16423980e-01
  7.44308252e-01  1.00000000e+00  1.00000000e+00  1.00000000e+00  1.00000000e+00
  1.00000000e+00  3.34945995e-02  2.34726947e-01  8.13757318e-01  1.00000000e+00
  3.34945995e-02  2.34726947e-01  8.13757318e-01  1.00000000e+00
Coordinates of each shell                  R   N=         552
 -2.49064688e+00  3.47331221e+00 -7.31785430e-02 -2.49064688e+00  3.47331221e+00
 -7.31785430e-02 -2.49064688e+00  3.47331221e+00 -7.31785430e-02 -2.49064688e+00
  3.47331221e+00 -7.31785430e-02 -2.49064688e+00  3.47331221e+00 -7.31785430e-02
 -2.49064688e+00  3.47331221e+00 -7.31785430e-02 -2.49064688e+00  3.47331221e+00
 -7.31785430e-02 -2.49064688e+00  3.47331221e+00 -7.31785430e-02 -1.35600586e+00
  5.55871993e+00 -1.26358845e+00 -1.35600586e+00  5.55871993e+00 -1.26358845e+00
 -1.35600586e+00  5.55871993e+00 -1.26358845e+00 -1.35600586e+00  5.55871993e+00
 -1.26358845e+00 -1.35600586e+00  5.55871993e+00 -1.26358845e+00 -1.35600586e+00
  5.55871993e+00 -1.26358845e+00 -1.35600586e+00  5.55871993e+00 -1.26358845e+00
 -1.35600586e+00  5.55871993e+00 -1.26358845e+00 -1.09672131e-01  5.61860989e+00
 -3.57183567e+00 -1.09672131e-01  5.61860989e+00 -3.57183567e+00 -1.09672131e-01
  5.61860989e+00 -3.57183567e+00 -1.09672131e-01  5.61860989e+00 -3.57183567e+00
 -1.09672131e-01  5.61860989e+00 -3.57183567e+00 -1.09672131e-01  5.61860989e+00
 -3.57183567e+00 -1.09672131e-01  5.61860989e+00 -3.57183567e+00 -1.09672131e-01
  5.61860989e+00 -3.57183567e+00  2.03928161e+00  1.49574079e+00 -3.17739093e+00
  2.03928161e+00  1.49574079e+00 -3.17739093e+00  2.03928161e+00  1.49574079e+00
 -3.17739093e+00  2.03928161e+00  1.49574079e+00 -3.17739093e+00  2.03928161e+00
  1.49574079e+00 -3.17739093e+00  2.03928161e+00  1.49574079e+00 -3.17739093e+00
  2.03928161e+00  1.49574079e+00 -3.17739093e+00  2.03928161e+00  1.49574079e+00
 -3.17739093e+00  3.82803436e-01  3.03550822e+00 -4.74543873e+00  3.82803436e-01
  3.03550822e+00 -4.74543873e+00  3.82803436e-01  3.03550822e+00 -4.74543873e+00
  3.82803436e-01  3.03550822e+00 -4.74543873e+00  3.82803436e-01  3.03550822e+00
 -4.74543873e+00  3.82803436e-01  3.03550822e+00 -4.74543873e+00  3.82803436e-01
  3.03550822e+00 -4.74543873e+00  3.82803436e-01  3.03550822e+00 -4.74543873e+00
  1.20717509e+00  5.80261935e-01 -1.09519871e+00  1.20717509e+00  5.80261935e-01
 -1.09519871e+00  1.20717509e+00  5.80261935e-01 -1.09519871e+00  1.20717509e+00
  5.80261935e-01 -1.09519871e+00  1.20717509e+00  5.80261935e-01 -1.09519871e+00
  1.20717509e+00  5.80261935e-01 -1.09519871e+00  1.20717509e+00  5.80261935e-01
 -1.09519871e+00  1.20717509e+00  5.80261935e-01 -1.09519871e+00 -1.32384544e+00
  1.06968594e+00  3.47742832e-02 -1.32384544e+00  1.06968594e+00  3.47742832e-02
 -1.32384544e+00  1.06968594e+00  3.47742832e-02 -1.32384544e+00  1.06968594e+00
  3.47742832e-02 -1.32384544e+00  1.06968594e+00  3.47742832e-02 -1.32384544e+00
  1.06968594e+00  3.47742832e-02 -1.32384544e+00  1.06968594e+00  3.47742832e-02
 -1.32384544e+00  1.06968594e+00  3.47742832e-02 -4.85994015e+00 -4.77262648e-01
  2.53175433e+00 -4.85994015e+00 -4.77262648e-01  2.53175433e+00 -4.85994015e+00
 -4.77262648e-01  2.53175433e+00 -4.85994015e+00 -4.77262648e-01  2.53175433e+00
 -4.85994015e+00 -4.77262648e-01  2.53175433e+00 -4.85994015e+00 -4.77262648e-01
  2.53175433e+00 -4.85994015e+00 -4.77262648e-01  2.53175433e+00 -4.85994015e+00
 -4.77262648e-01  2.53175433e+00 -2.55163470e+00 -8.86384085e-01  1.35732965e+00
 -2.55163470e+00 -8.86384085e-01  1.35732965e+00 -2.55163470e+00 -8.86384085e-01
  1.35732965e+00 -2.55163470e+00 -8.86384085e-01  1.35732965e+00 -2.55163470e+00
 -8.86384085e-01  1.35732965e+00 -2.55163470e+00 -8.86384085e-01  1.35732965e+00
 -2.55163470e+00 -8.86384085e-01  1.35732965e+00 -2.55163470e+00 -8.86384085e-01
  1.35732965e+00 -1.66779676e+00 -2.73264502e+00  1.46467290e+00 -1.66779676e+00
 -2.73264502e+00  1.46467290e+00  2.97770286e+00 -1.08592606e+00  3.69802893e-01
  2.97770286e+00 -1.08592606e+00  3.69802893e-01  2.97770286e+00 -1.08592606e+00
  3.69802893e-01  2.97770286e+00 -1.08592606e+00  3.69802893e-01  2.97770286e+00
 -1.08592606e+00  3.69802893e-01  2.97770286e+00 -1.08592606e+00  3.69802893e-01
  2.97770286e+00 -1.08592606e+00  3.69802893e-01  2.97770286e+00 -1.08592606e+00
  3.69802893e-01  3.74872972e+00 -3.23548676e-01  2.79261949e+00  3.74872972e+00
 -3.23548676e-01  2.79261949e+00  3.74872972e+00 -3.23548676e-01  2.79261949e+00
  3.74872972e+00 -3.23548676e-01  2.79261949e+00  3.74872972e+00 -3.23548676e-01
  2.79261949e+00  3.74872972e+00 -3.23548676e-01  2.79261949e+00  3.74872972e+00
 -3.23548676e-01  2.79261949e+00  3.74872972e+00 -3.23548676e-01  2.79261949e+00
  5.48679840e+00 -1.72396555e+00  4.19054857e+00  5.48679840e+00 -1.72396555e+00
  4.19054857e+00  5.48679840e+00 -1.72396555e+00  4.19054857e+00  5.48679840e+00
 -1.72396555e+00  4.19054857e+00  5.48679840e+00 -1.72396555e+00  4.19054857e+00
  5.48679840e+00 -1.72396555e+00  4.19054857e+00  5.48679840e+00 -1.72396555e+00
  4.19054857e+00  5.48679840e+00 -1.72396555e+00  4.19054857e+00  6.46626703e+00
 -3.96108569e+00  3.18753226e+00  6.46626703e+00 -3.96108569e+00  3.18753226e+00
  6.46626703e+00 -3.96108569e+00  3.18753226e+00  6.46626703e+00 -3.96108569e+00
  3.18753226e+00  6.46626703e+00 -3.96108569e+00  3.18753226e+00  6.46626703e+00
 -3.96108569e+00  3.18753226e+00  6.46626703e+00 -3.96108569e+00  3.18753226e+00
  6.46626703e+00 -3.96108569e+00  3.18753226e+00  5.69756886e+00 -4.78488325e+00
  8.04521479e-01  5.69756886e+00 -4.78488325e+00  8.04521479e-01  5.69756886e+00
 -4.78488325e+00  8.04521479e-01  5.69756886e+00 -4.78488325e+00  8.04521479e-01