Generated by Psi4
     FORCE                           RHF                       TESTBAS
Number of atoms                            I               35
Charge                                     I                0
Multiplicity                               I                1
Number of electrons                        I              118
Number of alpha electrons                  I               59
Number of beta electrons                   I               59
Number of basis functions                  I              342
Number of independent functions            I              342
Atomic numbers                             I   N=          35
           6           6           6           6           6           6
           6           6           6           6           6           6
           1           1           1           1           1           1
           1           1           1           1           1           1
           1           7           6           1           6           1
           1           1           1           1           8
Nuclear charges                            R   N=          35
  6.00000000e+00  6.00000000e+00  6.00000000e+00  6.00000000e+00  6.00000000e+00
  6.00000000e+00  6.00000000e+00  6.00000000e+00  6.00000000e+00  6.00000000e+00
  6.00000000e+00  6.00000000e+00  1.00000000e+00  1.00000000e+00  1.00000000e+00
  1.00000000e+00  1.00000000e+00  1.00000000e+00  1.00000000e+00  1.00000000e+00
  1.00000000e+00  1.00000000e+00  1.00000000e+00  1.00000000e+00  1.00000000e+00
  7.00000000e+00  6.00000000e+00  1.00000000e+00  6.00000000e+00  1.00000000e+00
  1.00000000e+00  1.00000000e+00  1.00000000e+00  1.00000000e+00  8.00000000e+00
Current cartesian coordinates              R   N=         105
 -6.37433096e+00 -1.43965362e+00  1.12481590e-01 -4.61366411e+00 -3.08718994e+00
  1.71628113e+00 -1.91278701e+00 -3.04181892e+00  6.64259679e-01 -7.34420112e-01
 -3.42268090e-01  4.32431276e-01  4.08255506e+00 -7.68015683e-01  4.47903641e-01
  1.82534436e+00 -6.20531537e-01 -9.30695247e-01  6.39821513e+00 -1.22067603e+00
 -7.43298224e-01  6.50188718e+00 -1.54373431e+00 -3.35798618e+00 -5.36558979e+00
  1.28680511e+00 -7.19579154e-02 -2.64960109e+00  1.38058359e+00 -1.01173605e+00
  1.96077600e+00 -9.67369879e-01 -3.55978736e+00  4.26629111e+00 -1.41966585e+00
 -4.75934886e+00 -6.50888783e+00  2.45074706e+00 -1.34291518e+00 -5.40921969e+00
  2.14721200e+00  1.81593841e+00 -1.88496520e+00 -3.91716394e+00 -1.21615861e+00
 -6.40736699e-01 -4.18377064e+00  1.84445984e+00 -6.53582950e+00 -2.24317220e+00
 -1.79783857e+00 -8.28920553e+00 -1.41477705e+00  9.07011461e-01  4.31344336e+00
 -1.66740985e+00 -6.79857862e+00  8.11572604e+00 -1.31687929e+00  3.80743327e-01
 -5.29615124e+00 -5.04651512e+00  1.74526612e+00 -4.61878265e+00 -2.40868024e+00
  3.67400005e+00  8.29792062e+00 -1.88890782e+00 -4.29343975e+00  2.57867776e-01
 -8.61629829e-01 -4.69591954e+00  4.05947033e+00 -5.29659563e-01  2.48749512e+00
 -6.18597145e-01  7.33967018e-01  2.99494165e+00  3.74821092e-01  3.30825630e+00
  3.28714373e+00  2.77714010e-01 -4.84253844e-01  4.18550709e+00  5.62322449e-01
  3.99378046e+00  6.08535418e+00 -9.29297066e-01  4.61567160e+00  2.34423922e+00
  2.22524227e+00  3.56900634e+00  2.36956182e+00 -1.27980976e+00  3.82404526e+00
  7.01674332e+00  1.23456312e+00  5.93943480e+00  6.31056074e+00  1.89961734e+00
  2.75399089e+00  7.07745639e+00 -2.02592100e+00  2.76138287e+00 -2.74195450e+00
Integer atomic weights                     I   N=          35
          12          12          12          12          12          12
          12          12          12          12          12          12
           1           1           1           1           1           1
           1           1           1           1           1           1
           1          14          12           1          12           1
           1           1           1           1          15
Real atomic weights                        R   N=          35
  1.20000000e+01  1.20000000e+01  1.20000000e+01  1.20000000e+01  1.20000000e+01
  1.20000000e+01  1.20000000e+01  1.20000000e+01  1.20000000e+01  1.20000000e+01
  1.20000000e+01  1.20000000e+01  1.00782503e+00  1.00782503e+00  1.00782503e+00
  1.00782503e+00  1.00782503e+00  1.00782503e+00  1.00782503e+00  1.00782503e+00
  1.00782503e+00  1.00782503e+00  1.00782503e+00  1.00782503e+00  1.00782503e+00
  1.40030740e+01  1.20000000e+01  1.00782503e+00  1.20000000e+01  1.00782503e+00
  1.00782503e+00  1.00782503e+00  1.00782503e+00  1.00782503e+00  1.59949146e+01
Number of primitive shells                 I              348
Number of contracted shells                I              166
Pure/Cartesian d shells                    I                1
Pure/Cartesian f shells                    I                1
Highest angular momentum                   I                2
Largest degree of contraction              I                6
Shell types                                I   N=         166
           0           0           1           0           1           2
           0           1           0           0           1           0
           1           2           0           1           0           0
           1           0           1           2           0           1
           0           0           1           0           1           2
           0           1           0           0           1           0
           1           2           0           1           0           0
           1           0           1           2           0           1
           0           0           1           0           1           2
           0           1           0           0           1           0
           1           2           0           1           0           0
           1           0           1           2           0           1
           0           0           1           0           1           2
           0           1           0           0           1           0
           1           2           0           1           0           0
           1           0           1           2           0           1
           0           0           0           0           0           0
           0           0           0           0           0           0
           0           0           0           0           0           0
           0           0           0           0           0           0
           0           0           0           0           1           0
           1           2           0           1           0           0
           1           0           1           2           0           1
           0           0           0           0           1           0
           1           2           0           1           0           0
           0           0           0           0           0           0
           0           0           0           0           1           0
           1           2           0           1
Number of primitives per shell             I   N=         166
           6           3           3           1           1           1
           1           1           6           3           3           1
           1           1           1           1           6           3
           3           1           1           1           1           1
           6           3           3           1           1           1
           1           1           6           3           3           1
           1           1           1           1           6           3
           3           1           1           1           1           1
           6           3           3           1           1           1
           1           1           6           3           3           1
           1           1           1           1           6           3
           3           1           1           1           1           1
           6           3           3           1           1           1
           1           1           6           3           3           1
           1           1           1           1           6           3
           3           1           1           1           1           1
           3           1           3           1           3           1
           3           1           3           1           3           1
           3           1           3           1           3           1
           3           1           3           1           3           1
           3           1           6           3           3           1
           1           1           1           1           6           3
           3           1           1           1           1           1
           3           1           6           3           3           1
           1           1           1           1           3           1
           3           1           3           1           3           1
           3           1           6           3           3           1
           1           1           1           1
Shell to atom map                          I   N=         166
           1           1           1           1           1           1
           1           1           2           2           2           2
           2           2           2           2           3           3
           3           3           3           3           3           3
           4           4           4           4           4           4
           4           4           5           5           5           5
           5           5           5           5           6           6
           6           6           6           6           6           6
           7           7           7           7           7           7
           7           7           8           8           8           8
           8           8           8           8           9           9
           9           9           9           9           9           9
          10          10          10          10          10          10
          10          10          11          11          11          11
          11          11          11          11          12          12
          12          12          12          12          12          12
          13          13          14          14          15          15
          16          16          17          17          18          18
          19          19          20          20          21          21
          22          22          23          23          24          24
          25          25          26          26          26          26
          26          26          26          26          27          27
          27          27          27          27          27          27
          28          28          29          29          29          29
          29          29          29          29          30          30
          31          31          32          32          33          33
          34          34          35          35          35          35
          35          35          35          35
Primitive exponents                        R   N=         348
  3.04752490e+03  4.57369510e+02  1.03948690e+02  2.92101550e+01  9.28666300e+00
  3.16392700e+00  7.86827240e+00  1.88128850e+00  5.44249300e-01  7.86827240e+00
  1.88128850e+00  5.44249300e-01  1.68714400e-01  1.68714400e-01  8.00000000e-01
  4.38000000e-02  4.38000000e-02  3.04752490e+03  4.57369510e+02  1.03948690e+02
  2.92101550e+01  9.28666300e+00  3.16392700e+00  7.86827240e+00  1.88128850e+00
  5.44249300e-01  7.86827240e+00  1.88128850e+00  5.44249300e-01  1.68714400e-01
  1.68714400e-01  8.00000000e-01  4.38000000e-02  4.38000000e-02  3.04752490e+03
  4.57369510e+02  1.03948690e+02  2.92101550e+01  9.28666300e+00  3.16392700e+00
  7.86827240e+00  1.88128850e+00  5.44249300e-01  7.86827240e+00  1.88128850e+00
  5.44249300e-01  1.68714400e-01  1.68714400e-01  8.00000000e-01  4.38000000e-02
  4.38000000e-02  3.04752490e+03  4.57369510e+02  1.03948690e+02  2.92101550e+01
  9.28666300e+00  3.16392700e+00  7.86827240e+00  1.88128850e+00  5.44249300e-01
  7.86827240e+00  1.88128850e+00  5.44249300e-01  1.68714400e-01  1.68714400e-01
  8.00000000e-01  4.38000000e-02  4.38000000e-02  3.04752490e+03  4.57369510e+02
  1.03948690e+02  2.92101550e+01  9.28666300e+00  3.16392700e+00  7.86827240e+00
  1.88128850e+00  5.44249300e-01  7.86827240e+00  1.88128850e+00  5.44249300e-01
  1.68714400e-01  1.68714400e-01  8.00000000e-01  4.38000000e-02  4.38000000e-02
  3.04752490e+03  4.57369510e+02  1.03948690e+02  2.92101550e+01  9.28666300e+00
  3.16392700e+00  7.86827240e+00  1.88128850e+00  5.44249300e-01  7.86827240e+00
  1.88128850e+00  5.44249300e-01  1.68714400e-01  1.68714400e-01  8.00000000e-01
  4.38000000e-02  4.38000000e-02  3.04752490e+03  4.57369510e+02  1.03948690e+02
  2.92101550e+01  9.28666300e+00  3.16392700e+00  7.86827240e+00  1.88128850e+00
  5.44249300e-01  7.86827240e+00  1.88128850e+00  5.44249300e-01  1.68714400e-01
  1.68714400e-01  8.00000000e-01  4.38000000e-02  4.38000000e-02  3.04752490e+03
  4.57369510e+02  1.03948690e+02  2.92101550e+01  9.28666300e+00  3.16392700e+00
  7.86827240e+00  1.88128850e+00  5.44249300e-01  7.86827240e+00  1.88128850e+00
  5.44249300e-01  1.68714400e-01  1.68714400e-01  8.00000000e-01  4.38000000e-02
  4.38000000e-02  3.04752490e+03  4.57369510e+02  1.03948690e+02  2.92101550e+01
  9.28666300e+00  3.16392700e+00  7.86827240e+00  1.88128850e+00  5.44249300e-01
  7.86827240e+00  1.88128850e+00  5.44249300e-01  1.68714400e-01  1.68714400e-01
  8.00000000e-01  4.38000000e-02  4.38000000e-02  3.04752490e+03  4.57369510e+02
  1.03948690e+02  2.92101550e+01  9.28666300e+00  3.16392700e+00  7.86827240e+00
  1.88128850e+00  5.44249300e-01  7.86827240e+00  1.88128850e+00  5.44249300e-01
  1.68714400e-01  1.68714400e-01  8.00000000e-01  4.38000000e-02  4.38000000e-02
  3.04752490e+03  4.57369510e+02  1.03948690e+02  2.92101550e+01  9.28666300e+00
  3.16392700e+00  7.86827240e+00  1.88128850e+00  5.44249300e-01  7.86827240e+00
  1.88128850e+00  5.44249300e-01  1.68714400e-01  1.68714400e-01  8.00000000e-01
  4.38000000e-02  4.38000000e-02  3.04752490e+03  4.57369510e+02  1.03948690e+02
  2.92101550e+01  9.28666300e+00  3.16392700e+00  7.86827240e+00  1.88128850e+00
  5.44249300e-01  7.86827240e+00  1.88128850e+00  5.44249300e-01  1.68714400e-01
  1.68714400e-01  8.00000000e-01  4.38000000e-02  4.38000000e-02  1.87311370e+01
  2.82539370e+00  6.40121700e-01  1.61277800e-01  1.87311370e+01  2.82539370e+00
  6.40121700e-01  1.61277800e-01  1.87311370e+01  2.82539370e+00  6.40121700e-01
  1.61277800e-01  1.87311370e+01  2.82539370e+00  6.40121700e-01  1.61277800e-01
  1.87311370e+01  2.82539370e+00  6.40121700e-01  1.61277800e-01  1.87311370e+01
  2.82539370e+00  6.40121700e-01  1.61277800e-01  1.87311370e+01  2.82539370e+00
  6.40121700e-01  1.61277800e-01  1.87311370e+01  2.82539370e+00  6.40121700e-01
  1.61277800e-01  1.87311370e+01  2.82539370e+00  6.40121700e-01  1.61277800e-01
  1.87311370e+01  2.82539370e+00  6.40121700e-01  1.61277800e-01  1.87311370e+01
  2.82539370e+00  6.40121700e-01  1.61277800e-01  1.87311370e+01  2.82539370e+00
  6.40121700e-01  1.61277800e-01  1.87311370e+01  2.82539370e+00  6.40121700e-01
  1.61277800e-01  4.17351100e+03  6.27457900e+02  1.42902100e+02  4.02343300e+01
  1.28202100e+01  4.39043700e+00  1.16263580e+01  2.71628000e+00  7.72218000e-01
  1.16263580e+01  2.71628000e+00  7.72218000e-01  2.12031300e-01  2.12031300e-01
  8.00000000e-01  6.39000000e-02  6.39000000e-02  3.04752490e+03  4.57369510e+02
  1.03948690e+02  2.92101550e+01  9.28666300e+00  3.16392700e+00  7.86827240e+00
  1.88128850e+00  5.44249300e-01  7.86827240e+00  1.88128850e+00  5.44249300e-01
  1.68714400e-01  1.68714400e-01  8.00000000e-01  4.38000000e-02  4.38000000e-02
  1.87311370e+01  2.82539370e+00  6.40121700e-01  1.61277800e-01  3.04752490e+03
  4.57369510e+02  1.03948690e+02  2.92101550e+01  9.28666300e+00  3.16392700e+00
  7.86827240e+00  1.88128850e+00  5.44249300e-01  7.86827240e+00  1.88128850e+00
  5.44249300e-01  1.68714400e-01  1.68714400e-01  8.00000000e-01  4.38000000e-02
  4.38000000e-02  1.87311370e+01  2.82539370e+00  6.40121700e-01  1.61277800e-01
  1.87311370e+01  2.82539370e+00  6.40121700e-01  1.61277800e-01  1.87311370e+01
  2.82539370e+00  6.40121700e-01  1.61277800e-01  1.87311370e+01  2.82539370e+00
  6.40121700e-01  1.61277800e-01  1.87311370e+01  2.82539370e+00  6.40121700e-01
  1.61277800e-01  5.48467170e+03  8.25234950e+02  1.88046960e+02  5.29645000e+01
  1.68975700e+01  5.79963530e+00  1.55396160e+01  3.59993360e+00  1.01376180e+00
  1.55396160e+01  3.59993360e+00  1.01376180e+00  2.70005800e-01  2.70005800e-01
  8.00000000e-01  8.45000000e-02  8.45000000e-02
Contraction coefficients                   R   N=         348
  1.83470016e-03  1.40373012e-02  6.88426061e-02  2.32184421e-01  4.67941342e-01
  3.62312032e-01 -1.19332409e-01 -1.60854212e-01  1.14345648e+00  6.89990956e-02
  3.16423980e-01  7.44308252e-01  1.00000000e+00  1.00000000e+00  1.00000000e+00
  1.00000000e+00  1.00000000e+00  1.83470016e-03  1.40373012e-02  6.88426061e-02
  2.32184421e-01  4.67941342e-01  3.62312032e-01 -1.19332409e-01 -1.60854212e-01
  1.14345648e+00  6.89990956e-02  3.16423980e-01  7.44308252e-01  1.00000000e+00
  1.00000000e+00  1.00000000e+00  1.00000000e+00  1.00000000e+00  1.83470016e-03
  1.40373012e-02  6.88426061e-02  2.32184421e-01  4.67941342e-01  3.62312032e-01
 -1.19332409e-01 -1.60854212e-01  1.14345648e+00  6.89990956e-02  3.16423980e-01
  7.44308252e-01  1.00000000e+00  1.00000000e+00  1.00000000e+00  1.00000000e+00
  1.00000000e+00  1.83470016e-03  1.40373012e-02  6.88426061e-02  2.32184421e-01
  4.67941342e-01  3.62312032e-01 -1.19332409e-01 -1.60854212e-01  1.14345648e+00
  6.89990956e-02  3.16423980e-01  7.44308252e-01  1.00000000e+00  1.00000000e+00
  1.00000000e+00  1.00000000e+00  1.00000000e+00  1.83470016e-03  1.40373012e-02
  6.88426061e-02  2.32184421e-01  4.67941342e-01  3.62312032e-01 -1.19332409e-01
 -1.60854212e-01  1.14345648e+00  6.89990956e-02  3.16423980e-01  7.44308252e-01
  1.00000000e+00  1.00000000e+00  1.00000000e+00  1.00000000e+00  1.00000000e+00
  1.83470016e-03  1.40373012e-02  6.88426061e-02  2.32184421e-01  4.67941342e-01
  3.62312032e-01 -1.19332409e-01 -1.60854212e-01  1.14345648e+00  6.89990956e-02
  3.16423980e-01  7.44308252e-01  1.00000000e+00  1.00000000e+00  1.00000000e+00
  1.00000000e+00  1.00000000e+00  1.83470016e-03  1.40373012e-02  6.88426061e-02
  2.32184421e-01  4.67941342e-01  3.62312032e-01 -1.19332409e-01 -1.60854212e-01
  1.14345648e+00  6.89990956e-02  3.16423980e-01  7.44308252e-01  1.00000000e+00
  1.00000000e+00  1.00000000e+00  1.00000000e+00  1.00000000e+00  1.83470016e-03
  1.40373012e-02  6.88426061e-02  2.32184421e-01  4.67941342e-01  3.62312032e-01
 -1.19332409e-01 -1.60854212e-01  1.14345648e+00  6.89990956e-02  3.16423980e-01
  7.44308252e-01  1.00000000e+00  1.00000000e+00  1.00000000e+00  1.00000000e+00
  1.00000000e+00  1.83470016e-03  1.40373012e-02  6.88426061e-02  2.32184421e-01
  4.67941342e-01  3.62312032e-01 -1.19332409e-01 -1.60854212e-01  1.14345648e+00
  6.89990956e-02  3.16423980e-01  7.44308252e-01  1.00000000e+00  1.00000000e+00
  1.00000000e+00  1.00000000e+00  1.00000000e+00  1.83470016e-03  1.40373012e-02
  6.88426061e-02  2.32184421e-01  4.67941342e-01  3.62312032e-01 -1.19332409e-01
 -1.60854212e-01  1.14345648e+00  6.89990956e-02  3.16423980e-01  7.44308252e-01
  1.00000000e+00  1.00000000e+00  1.00000000e+00  1.00000000e+00  1.00000000e+00
  1.83470016e-03  1.40373012e-02  6.88426061e-02  2.32184421e-01  4.67941342e-01
  3.62312032e-01 -1.19332409e-01 -1.60854212e-01  1.14345648e+00  6.89990956e-02
  3.16423980e-01  7.44308252e-01  1.00000000e+00  1.00000000e+00  1.00000000e+00
  1.00000000e+00  1.00000000e+00  1.83470016e-03  1.40373012e-02  6.88426061e-02
  2.32184421e-01  4.67941342e-01  3.62312032e-01 -1.19332409e-01 -1.60854212e-01
  1.14345648e+00  6.89990956e-02  3.16423980e-01  7.44308252e-01  1.00000000e+00
  1.00000000e+00  1.00000000e+00  1.00000000e+00  1.00000000e+00  3.34945995e-02
  2.34726947e-01  8.13757318e-01  1.00000000e+00  3.34945995e-02  2.34726947e-01
  8.13757318e-01  1.00000000e+00  3.34945995e-02  2.34726947e-01  8.13757318e-01
  1.00000000e+00  3.34945995e-02  2.34726947e-01  8.13757318e-01  1.00000000e+00
  3.34945995e-02  2.34726947e-01  8.13757318e-01  1.00000000e+00  3.34945995e-02
  2.34726947e-01  8.13757318e-01  1.00000000e+00  3.34945995e-02  2.34726947e-01
  8.13757318e-01  1.00000000e+00  3.34945995e-02  2.34726947e-01  8.13757318e-01
  1.00000000e+00  3.34945995e-02  2.34726947e-01  8.13757318e-01  1.00000000e+00
  3.34945995e-02  2.34726947e-01  8.13757318e-01  1.00000000e+00  3.34945995e-02
  2.34726947e-01  8.13757318e-01  1.00000000e+00  3.34945995e-02  2.34726947e-01
  8.13757318e-01  1.00000000e+00  3.34945995e-02  2.34726947e-01  8.13757318e-01
  1.00000000e+00  1.83479944e-03  1.39949958e-02  6.85869792e-02  2.32240930e-01
  4.69069858e-01  3.60454891e-01 -1.14961023e-01 -1.69118034e-01  1.14585223e+00
  6.75800232e-02  3.23907111e-01  7.40895255e-01  1.00000000e+00  1.00000000e+00
  1.00000000e+00  1.00000000e+00  1.00000000e+00  1.83470016e-03  1.40373012e-02
  6.88426061e-02  2.32184421e-01  4.67941342e-01  3.62312032e-01 -1.19332409e-01
 -1.60854212e-01  1.14345648e+00  6.89990956e-02  3.16423980e-01  7.44308252e-01
  1.00000000e+00  1.00000000e+00  1.00000000e+00  1.00000000e+00  1.00000000e+00
  3.34945995e-02  2.34726947e-01  8.13757318e-01  1.00000000e+00  1.83470016e-03
  1.40373012e-02  6.88426061e-02  2.32184421e-01  4.67941342e-01  3.62312032e-01
 -1.19332409e-01 -1.60854212e-01  1.14345648e+00  6.89990956e-02  3.16423980e-01
  7.44308252e-01  1.00000000e+00  1.00000000e+00  1.00000000e+00  1.00000000e+00
  1.00000000e+00  3.34945995e-02  2.34726947e-01  8.13757318e-01  1.00000000e+00
  3.34945995e-02  2.34726947e-01  8.13757318e-01  1.00000000e+00  3.34945995e-02
  2.34726947e-01  8.13757318e-01  1.00000000e+00  3.34945995e-02  2.34726947e-01
  8.13757318e-01  1.00000000e+00  3.34945995e-02  2.34726947e-01  8.13757318e-01
  1.00000000e+00  1.83109981e-03  1.39500985e-02  6.84450927e-02  2.32714275e-01
  4.70192950e-01  3.58520862e-01 -1.10777504e-01 -1.48026305e-01  1.13076704e+00
  7.08742995e-02  3.39752798e-01  7.27158595e-01  1.00000000e+00  1.00000000e+00
  1.00000000e+00  1.00000000e+00  1.00000000e+00
Coordinates of each shell                  R   N=         498
 -6.37433096e+00 -1.43965362e+00  1.12481590e-01 -6.37433096e+00 -1.43965362e+00
  1.12481590e-01 -6.37433096e+00 -1.43965362e+00  1.12481590e-01 -6.37433096e+00
 -1.43965362e+00  1.12481590e-01 -6.37433096e+00 -1.43965362e+00  1.12481590e-01
 -6.37433096e+00 -1.43965362e+00  1.12481590e-01 -6.37433096e+00 -1.43965362e+00
  1.12481590e-01 -6.37433096e+00 -1.43965362e+00  1.12481590e-01 -4.61366411e+00
 -3.08718994e+00  1.71628113e+00 -4.61366411e+00 -3.08718994e+00  1.71628113e+00
 -4.61366411e+00 -3.08718994e+00  1.71628113e+00 -4.61366411e+00 -3.08718994e+00
  1.71628113e+00 -4.61366411e+00 -3.08718994e+00  1.71628113e+00 -4.61366411e+00
 -3.08718994e+00  1.71628113e+00 -4.61366411e+00 -3.08718994e+00  1.71628113e+00
 -4.61366411e+00 -3.08718994e+00  1.71628113e+00 -1.91278701e+00 -3.04181892e+00
  6.64259679e-01 -1.91278701e+00 -3.04181892e+00  6.64259679e-01 -1.91278701e+00
 -3.04181892e+00  6.64259679e-01 -1.91278701e+00 -3.04181892e+00  6.64259679e-01
 -1.91278701e+00 -3.04181892e+00  6.64259679e-01 -1.91278701e+00 -3.04181892e+00
  6.64259679e-01 -1.91278701e+00 -3.04181892e+00  6.64259679e-01 -1.91278701e+00
 -3.04181892e+00  6.64259679e-01 -7.34420112e-01 -3.42268090e-01  4.32431276e-01
 -7.34420112e-01 -3.42268090e-01  4.32431276e-01 -7.34420112e-01 -3.42268090e-01
  4.32431276e-01 -7.34420112e-01 -3.42268090e-01  4.32431276e-01 -7.34420112e-01
 -3.42268090e-01  4.32431276e-01 -7.34420112e-01 -3.42268090e-01  4.32431276e-01
 -7.34420112e-01 -3.42268090e-01  4.32431276e-01 -7.34420112e-01 -3.42268090e-01
  4.32431276e-01  4.08255506e+00 -7.68015683e-01  4.47903641e-01  4.08255506e+00
 -7.68015683e-01  4.47903641e-01  4.08255506e+00 -7.68015683e-01  4.47903641e-01
  4.08255506e+00 -7.68015683e-01  4.47903641e-01  4.08255506e+00 -7.68015683e-01
  4.47903641e-01  4.08255506e+00 -7.68015683e-01  4.47903641e-01  4.08255506e+00
 -7.68015683e-01  4.47903641e-01  4.08255506e+00 -7.68015683e-01  4.47903641e-01
  1.82534436e+00 -6.20531537e-01 -9.30695247e-01  1.82534436e+00 -6.20531537e-01
 -9.30695247e-01  1.82534436e+00 -6.20531537e-01 -9.30695247e-01  1.82534436e+00
 -6.20531537e-01 -9.30695247e-01  1.82534436e+00 -6.20531537e-01 -9.30695247e-01
  1.82534436e+00 -6.20531537e-01 -9.30695247e-01  1.82534436e+00 -6.20531537e-01
 -9.30695247e-01  1.82534436e+00 -6.20531537e-01 -9.30695247e-01  6.39821513e+00
 -1.22067603e+00 -7.43298224e-01  6.39821513e+00 -1.22067603e+00 -7.43298224e-01
  6.39821513e+00 -1.22067603e+00 -7.43298224e-01  6.39821513e+00 -1.22067603e+00
 -7.43298224e-01  6.39821513e+00 -1.22067603e+00 -7.43298224e-01  6.39821513e+00
 -1.22067603e+00 -7.43298224e-01  6.39821513e+00 -1.22067603e+00 -7.43298224e-01
  6.39821513e+00 -1.22067603e+00 -7.43298224e-01  6.50188718e+00 -1.54373431e+00
 -3.35798618e+00  6.50188718e+00 -1.54373431e+00 -3.35798618e+00  6.50188718e+00
 -1.54373431e+00 -3.35798618e+00  6.50188718e+00 -1.54373431e+00 -3.35798618e+00
  6.50188718e+00 -1.54373431e+00 -3.35798618e+00  6.50188718e+00 -1.54373431e+00
 -3.35798618e+00  6.50188718e+00 -1.54373431e+00 -3.35798618e+00  6.50188718e+00
 -1.54373431e+00 -3.35798618e+00 -5.36558979e+00  1.28680511e+00 -7.19579154e-02
 -5.36558979e+00  1.28680511e+00 -7.19579154e-02 -5.36558979e+00  1.28680511e+00
 -7.19579154e-02 -5.36558979e+00  1.28680511e+00 -7.19579154e-02 -5.36558979e+00
  1.28680511e+00 -7.19579154e-02 -5.36558979e+00  1.28680511e+00 -7.19579154e-02
 -5.36558979e+00  1.28680511e+00 -7.19579154e-02 -5.36558979e+00  1.28680511e+00
 -7.19579154e-02 -2.64960109e+00  1.38058359e+00 -1.01173605e+00 -2.64960109e+00
  1.38058359e+00 -1.01173605e+00 -2.64960109e+00  1.38058359e+00 -1.01173605e+00
 -2.64960109e+00  1.38058359e+00 -1.01173605e+00 -2.64960109e+00  1.38058359e+00
 -1.01173605e+00 -2.64960109e+00  1.38058359e+00 -1.01173605e+00 -2.64960109e+00
  1.38058359e+00 -1.01173605e+00 -2.64960109e+00  1.38058359e+00 -1.01173605e+00
  1.96077600e+00 -9.67369879e-01 -3.55978736e+00  1.96077600e+00 -9.67369879e-01
 -3.55978736e+00  1.96077600e+00 -9.67369879e-01 -3.55978736e+00  1.96077600e+00
 -9.67369879e-01 -3.55978736e+00  1.96077600e+00 -9.67369879e-01 -3.55978736e+00
  1.96077600e+00 -9.67369879e-01 -3.55978736e+00  1.96077600e+00 -9.67369879e-01
 -3.55978736e+00  1.96077600e+00 -9.67369879e-01 -3.55978736e+00  4.26629111e+00
 -1.41966585e+00 -4.75934886e+00  4.26629111e+00 -1.41966585e+00 -4.75934886e+00
  4.26629111e+00 -1.41966585e+00 -4.75934886e+00  4.26629111e+00 -1.41966585e+00
 -4.75934886e+00  4.26629111e+00 -1.41966585e+00 -4.75934886e+00  4.26629111e+00
 -1.41966585e+00 -4.75934886e+00  4.26629111e+00 -1.41966585e+00 -4.75934886e+00
  4.26629111e+00 -1.41966585e+00 -4.75934886e+00 -6.50888783e+00  2.45074706e+00
 -1.34291518e+00 -6.50888783e+00  2.45074706e+00 -1.34291518e+00 -5.40921969e+00
  2.14721200e+00  1.81593841e+00 -5.40921969e+00  2.14721200e+00  1.81593841e+00
 -1.88496520e+00 -3.91716394e+00 -1.21615861e+00 -1.88496520e+00 -3.91716394e+00
 -1.21615861e+00 -6.40736699e-01 -4.18377064e+00  1.84445984e+00 -6.40736699e-01
 -4.18377064e+00  1.84445984e+00 -6.53582950e+00 -2.24317220e+00 -1.79783857e+00
 -6.53582950e+00 -2.24317220e+00 -1.79783857e+00 -8.28920553e+00 -1.41477705e+00
  9.07011461e-01 -8.28920553e+00 -1.41477705e+00  9.07011461e-01  4.31344336e+00
 -1.66740985e+00 -6.79857862e+00  4.31344336e+00 -1.66740985e+00 -6.79857862e+00
  8.11572604e+00 -1.31687929e+00  3.80743327e-01  8.11572604e+00 -1.31687929e+00
  3.80743327e-01 -5.29615124e+00 -5.04651512e+00  1.74526612e+00 -5.29615124e+00
 -5.04651512e+00  1.74526612e+00 -4.61878265e+00 -2.40868024e+00  3.67400005e+00
 -4.61878265e+00 -2.40868024e+00  3.67400005e+00  8.29792062e+00 -1.88890782e+00
 -4.29343975e+00  8.29792062e+00 -1.88890782e+00 -4.29343975e+00  2.57867776e-01
 -8.61629829e-01 -4.69591954e+00  2.57867776e-01 -8.61629829e-01 -4.69591954e+00
  4.05947033e+00 -5.29659563e-01  2.48749512e+00  4.05947033e+00 -5.29659563e-01
  2.48749512e+00 -6.18597145e-01  7.33967018e-01  2.99494165e+00 -6.18597145e-01
  7.33967018e-01  2.99494165e+00 -6.18597145e-01  7.33967018e-01  2.99494165e+00
 -6.18597145e-01  7.33967018e-01  2.99494165e+00 -6.18597145e-01  7.33967018e-01
  2.99494165e+00 -6.18597145e-01  7.33967018e-01  2.99494165e+00 -6.18597145e-01
  7.33967018e-01  2.99494165e+00 -6.18597145e-01  7.33967018e-01  2.99494165e+00
  3.74821092e-01  3.30825630e+00  3.28714373e+00  3.74821092e-01  3.30825630e+00
  3.28714373e+00  3.74821092e-01  3.30825630e+00  3.28714373e+00  3.74821092e-01
  3.30825630e+00  3.28714373e+00  3.74821092e-01  3.30825630e+00  3.28714373e+00
  3.74821092e-01  3.30825630e+00  3.28714373e+00  3.74821092e-01  3.30825630e+00
  3.28714373e+00  3.74821092e-01  3.30825630e+00  3.28714373e+00  2.77714010e-01
 -4.84253844e-01  4.18550709e+00  2.77714010e-01 -4.84253844e-01  4.18550709e+00
  5.62322449e-01  3.99378046e+00  6.08535418e+00  5.62322449e-01  3.99378046e+00
  6.08535418e+00  5.62322449e-01  3.99378046e+00  6.08535418e+00  5.62322449e-01
  3.99378046e+00  6.08535418e+00  5.62322449e-01  3.99378046e+00  6.08535418e+00
  5.62322449e-01  3.99378046e+00  6.08535418e+00  5.62322449e-01  3.99378046e+00
  6.08535418e+00  5.62322449e-01  3.99378046e+00  6.08535418e+00 -9.29297066e-01
  4.61567160e+00  2.34423922e+00 -9.29297066e-01  4.61567160e+00  2.34423922e+00