Generated by Psi4
     FORCE                           RHF                       TESTBAS
Number of atoms                            I               36
Charge                                     I                0
Multiplicity                               I                1
Number of electrons                        I              118
Number of alpha electrons                  I               59
Number of beta electrons                   I               59
Number of basis functions                  I              344
Number of independent functions            I              344
Atomic numbers                             I   N=          36
           6           6           6           6           6           6
           7           6           6           1           1           1
           1           1           6           6           1           1
           7           1           1           6           6           1
           6           1           1           1           1           1
           6           1           1           1           1           1
Nuclear charges                            R   N=          36
  6.00000000e+00  6.00000000e+00  6.00000000e+00  6.00000000e+00  6.00000000e+00
  6.00000000e+00  7.00000000e+00  6.00000000e+00  6.00000000e+00  1.00000000e+00
  1.00000000e+00  1.00000000e+00  1.00000000e+00  1.00000000e+00  6.00000000e+00
  6.00000000e+00  1.00000000e+00  1.00000000e+00  7.00000000e+00  1.00000000e+00
  1.00000000e+00  6.00000000e+00  6.00000000e+00  1.00000000e+00  6.00000000e+00
  1.00000000e+00  1.00000000e+00  1.00000000e+00  1.00000000e+00  1.00000000e+00
  6.00000000e+00  1.00000000e+00  1.00000000e+00  1.00000000e+00  1.00000000e+00
  1.00000000e+00
Current cartesian coordinates              R   N=         108
  3.16676199e-01 -8.28905707e-01 -2.39823640e+00  4.08103984e+00  1.60619134e+00
 -2.73007986e-01  2.45286674e+00  8.65924045e-01 -2.24278522e+00  6.02505843e+00
  3.30033520e+00 -7.81937493e-01  6.38358091e+00  4.28643438e+00 -3.23593763e+00
 -4.64722670e-01 -7.77725288e-01 -4.87451263e+00  1.04332918e+00  8.49336142e-01
 -6.26512000e+00  2.85836248e+00  1.88076213e+00 -4.70122969e+00  4.80940248e+00
  3.59000437e+00 -5.22476287e+00  7.91652227e+00  5.60978828e+00 -3.57884896e+00
  5.09108945e+00  4.34722762e+00 -7.11457281e+00  3.82609848e+00  8.62648271e-01
  1.62568332e+00  8.75333973e-01  1.17840376e+00 -8.13498372e+00 -1.99400004e+00
 -1.79403537e+00 -5.77595981e+00 -8.48785375e-01 -2.32775107e+00 -2.82650325e-01
 -2.55998255e+00 -7.10811676e-01  1.43706080e+00  6.62098340e-01 -3.21053947e+00
  8.31117135e-01 -1.99362333e+00 -3.87465823e+00 -1.05427582e+00 -3.97527980e+00
 -2.19026303e+00  3.30529877e+00 -3.95314681e+00  2.30146363e-01  2.26932724e-01
 -1.42923109e+00  8.16729509e-01  2.30987122e+00 -2.39538743e+00 -3.47097625e+00
  5.19847856e+00 -6.07090683e+00 -7.20176855e-01  4.37371023e+00  7.29091472e+00
  3.88026060e+00  7.28186950e-01 -9.32153159e-01 -1.79265708e+00  7.07579663e+00
 -2.19924487e+00 -6.38482728e-01  8.23932421e+00  3.85717238e-01 -5.13088884e-01
  6.11827841e+00  1.77264947e-01 -2.98681050e+00  8.35719219e+00 -1.05644598e+00
 -4.67929364e+00  4.18362884e+00 -3.61452325e+00 -4.76619117e+00  6.25764251e+00
 -7.90630305e+00 -2.28199263e+00  5.97303329e+00 -7.07659394e+00 -2.89948612e+00
  7.76675653e+00 -8.53182321e+00 -3.96178430e+00  4.93426969e+00 -9.57374102e+00
 -1.13975412e+00  6.43024209e+00 -7.11549580e+00  7.27717567e-02  2.76875565e+00
 -5.39895524e+00  9.17580913e-01  5.49332957e+00
Integer atomic weights                     I   N=          36
          12          12          12          12          12          12
          14          12          12           1           1           1
           1           1          12          12           1           1
          14           1           1          12          12           1
          12           1           1           1           1           1
          12           1           1           1           1           1
Real atomic weights                        R   N=          36
  1.20000000e+01  1.20000000e+01  1.20000000e+01  1.20000000e+01  1.20000000e+01
  1.20000000e+01  1.40030740e+01  1.20000000e+01  1.20000000e+01  1.00782503e+00
  1.00782503e+00  1.00782503e+00  1.00782503e+00  1.00782503e+00  1.20000000e+01
  1.20000000e+01  1.00782503e+00  1.00782503e+00  1.40030740e+01  1.00782503e+00
  1.00782503e+00  1.20000000e+01  1.20000000e+01  1.00782503e+00  1.20000000e+01
  1.00782503e+00  1.00782503e+00  1.00782503e+00  1.00782503e+00  1.00782503e+00
  1.20000000e+01  1.00782503e+00  1.00782503e+00  1.00782503e+00  1.00782503e+00
  1.00782503e+00
Number of primitive shells                 I              352
Number of contracted shells                I              168
Pure/Cartesian d shells                    I                1
Pure/Cartesian f shells                    I                1
Highest angular momentum                   I                2
Largest degree of contraction              I                6
Shell types                                I   N=         168
           0           0           1           0           1           2
           0           1           0           0           1           0
           1           2           0           1           0           0
           1           0           1           2           0           1
           0           0           1           0           1           2
           0           1           0           0           1           0
           1           2           0           1           0           0
           1           0           1           2           0           1
           0           0           1           0           1           2
           0           1           0           0           1           0
           1           2           0           1           0           0
           1           0           1           2           0           1
           0           0           0           0           0           0
           0           0           0           0           0           0
           1           0           1           2           0           1
           0           0           1           0           1           2
           0           1           0           0           0           0
           0           0           1           0           1           2
           0           1           0           0           0           0
           0           0           1           0           1           2
           0           1           0           0           1           0
           1           2           0           1           0           0
           0           0           1           0           1           2
           0           1           0           0           0           0
           0           0           0           0           0           0
           0           0           1           0           1           2
           0           1           0           0           0           0
           0           0           0           0           0           0
Number of primitives per shell             I   N=         168
           6           3           3           1           1           1
           1           1           6           3           3           1
           1           1           1           1           6           3
           3           1           1           1           1           1
           6           3           3           1           1           1
           1           1           6           3           3           1
           1           1           1           1           6           3
           3           1           1           1           1           1
           6           3           3           1           1           1
           1           1           6           3           3           1
           1           1           1           1           6           3
           3           1           1           1           1           1
           3           1           3           1           3           1
           3           1           3           1           6           3
           3           1           1           1           1           1
           6           3           3           1           1           1
           1           1           3           1           3           1
           6           3           3           1           1           1
           1           1           3           1           3           1
           6           3           3           1           1           1
           1           1           6           3           3           1
           1           1           1           1           3           1
           6           3           3           1           1           1
           1           1           3           1           3           1
           3           1           3           1           3           1
           6           3           3           1           1           1
           1           1           3           1           3           1
           3           1           3           1           3           1
Shell to atom map                          I   N=         168
           1           1           1           1           1           1
           1           1           2           2           2           2
           2           2           2           2           3           3
           3           3           3           3           3           3
           4           4           4           4           4           4
           4           4           5           5           5           5
           5           5           5           5           6           6
           6           6           6           6           6           6
           7           7           7           7           7           7
           7           7           8           8           8           8
           8           8           8           8           9           9
           9           9           9           9           9           9
          10          10          11          11          12          12
          13          13          14          14          15          15
          15          15          15          15          15          15
          16          16          16          16          16          16
          16          16          17          17          18          18
          19          19          19          19          19          19
          19          19          20          20          21          21
          22          22          22          22          22          22
          22          22          23          23          23          23
          23          23          23          23          24          24
          25          25          25          25          25          25
          25          25          26          26          27          27
          28          28          29          29          30          30
          31          31          31          31          31          31
          31          31          32          32          33          33
          34          34          35          35          36          36
Primitive exponents                        R   N=         352
  3.04752490e+03  4.57369510e+02  1.03948690e+02  2.92101550e+01  9.28666300e+00
  3.16392700e+00  7.86827240e+00  1.88128850e+00  5.44249300e-01  7.86827240e+00
  1.88128850e+00  5.44249300e-01  1.68714400e-01  1.68714400e-01  8.00000000e-01
  4.38000000e-02  4.38000000e-02  3.04752490e+03  4.57369510e+02  1.03948690e+02
  2.92101550e+01  9.28666300e+00  3.16392700e+00  7.86827240e+00  1.88128850e+00
  5.44249300e-01  7.86827240e+00  1.88128850e+00  5.44249300e-01  1.68714400e-01
  1.68714400e-01  8.00000000e-01  4.38000000e-02  4.38000000e-02  3.04752490e+03
  4.57369510e+02  1.03948690e+02  2.92101550e+01  9.28666300e+00  3.16392700e+00
  7.86827240e+00  1.88128850e+00  5.44249300e-01  7.86827240e+00  1.88128850e+00
  5.44249300e-01  1.68714400e-01  1.68714400e-01  8.00000000e-01  4.38000000e-02
  4.38000000e-02  3.04752490e+03  4.57369510e+02  1.03948690e+02  2.92101550e+01
  9.28666300e+00  3.16392700e+00  7.86827240e+00  1.88128850e+00  5.44249300e-01
  7.86827240e+00  1.88128850e+00  5.44249300e-01  1.68714400e-01  1.68714400e-01
  8.00000000e-01  4.38000000e-02  4.38000000e-02  3.04752490e+03  4.57369510e+02
  1.03948690e+02  2.92101550e+01  9.28666300e+00  3.16392700e+00  7.86827240e+00
  1.88128850e+00  5.44249300e-01  7.86827240e+00  1.88128850e+00  5.44249300e-01
  1.68714400e-01  1.68714400e-01  8.00000000e-01  4.38000000e-02  4.38000000e-02
  3.04752490e+03  4.57369510e+02  1.03948690e+02  2.92101550e+01  9.28666300e+00
  3.16392700e+00  7.86827240e+00  1.88128850e+00  5.44249300e-01  7.86827240e+00
  1.88128850e+00  5.44249300e-01  1.68714400e-01  1.68714400e-01  8.00000000e-01
  4.38000000e-02  4.38000000e-02  4.17351100e+03  6.27457900e+02  1.42902100e+02
  4.02343300e+01  1.28202100e+01  4.39043700e+00  1.16263580e+01  2.71628000e+00
  7.72218000e-01  1.16263580e+01  2.71628000e+00  7.72218000e-01  2.12031300e-01
  2.12031300e-01  8.00000000e-01  6.39000000e-02  6.39000000e-02  3.04752490e+03
  4.57369510e+02  1.03948690e+02  2.92101550e+01  9.28666300e+00  3.16392700e+00
  7.86827240e+00  1.88128850e+00  5.44249300e-01  7.86827240e+00  1.88128850e+00
  5.44249300e-01  1.68714400e-01  1.68714400e-01  8.00000000e-01  4.38000000e-02
  4.38000000e-02  3.04752490e+03  4.57369510e+02  1.03948690e+02  2.92101550e+01
  9.28666300e+00  3.16392700e+00  7.86827240e+00  1.88128850e+00  5.44249300e-01
  7.86827240e+00  1.88128850e+00  5.44249300e-01  1.68714400e-01  1.68714400e-01
  8.00000000e-01  4.38000000e-02  4.38000000e-02  1.87311370e+01  2.82539370e+00
  6.40121700e-01  1.61277800e-01  1.87311370e+01  2.82539370e+00  6.40121700e-01
  1.61277800e-01  1.87311370e+01  2.82539370e+00  6.40121700e-01  1.61277800e-01
  1.87311370e+01  2.82539370e+00  6.40121700e-01  1.61277800e-01  1.87311370e+01
  2.82539370e+00  6.40121700e-01  1.61277800e-01  3.04752490e+03  4.57369510e+02
  1.03948690e+02  2.92101550e+01  9.28666300e+00  3.16392700e+00  7.86827240e+00
  1.88128850e+00  5.44249300e-01  7.86827240e+00  1.88128850e+00  5.44249300e-01
  1.68714400e-01  1.68714400e-01  8.00000000e-01  4.38000000e-02  4.38000000e-02
  3.04752490e+03  4.57369510e+02  1.03948690e+02  2.92101550e+01  9.28666300e+00
  3.16392700e+00  7.86827240e+00  1.88128850e+00  5.44249300e-01  7.86827240e+00
  1.88128850e+00  5.44249300e-01  1.68714400e-01  1.68714400e-01  8.00000000e-01
  4.38000000e-02  4.38000000e-02  1.87311370e+01  2.82539370e+00  6.40121700e-01
  1.61277800e-01  1.87311370e+01  2.82539370e+00  6.40121700e-01  1.61277800e-01
  4.17351100e+03  6.27457900e+02  1.42902100e+02  4.02343300e+01  1.28202100e+01
  4.39043700e+00  1.16263580e+01  2.71628000e+00  7.72218000e-01  1.16263580e+01
  2.71628000e+00  7.72218000e-01  2.12031300e-01  2.12031300e-01  8.00000000e-01
  6.39000000e-02  6.39000000e-02  1.87311370e+01  2.82539370e+00  6.40121700e-01
  1.61277800e-01  1.87311370e+01  2.82539370e+00  6.40121700e-01  1.61277800e-01
  3.04752490e+03  4.57369510e+02  1.03948690e+02  2.92101550e+01  9.28666300e+00
  3.16392700e+00  7.86827240e+00  1.88128850e+00  5.44249300e-01  7.86827240e+00
  1.88128850e+00  5.44249300e-01  1.68714400e-01  1.68714400e-01  8.00000000e-01
  4.38000000e-02  4.38000000e-02  3.04752490e+03  4.57369510e+02  1.03948690e+02
  2.92101550e+01  9.28666300e+00  3.16392700e+00  7.86827240e+00  1.88128850e+00
  5.44249300e-01  7.86827240e+00  1.88128850e+00  5.44249300e-01  1.68714400e-01
  1.68714400e-01  8.00000000e-01  4.38000000e-02  4.38000000e-02  1.87311370e+01
  2.82539370e+00  6.40121700e-01  1.61277800e-01  3.04752490e+03  4.57369510e+02
  1.03948690e+02  2.92101550e+01  9.28666300e+00  3.16392700e+00  7.86827240e+00
  1.88128850e+00  5.44249300e-01  7.86827240e+00  1.88128850e+00  5.44249300e-01
  1.68714400e-01  1.68714400e-01  8.00000000e-01  4.38000000e-02  4.38000000e-02
  1.87311370e+01  2.82539370e+00  6.40121700e-01  1.61277800e-01  1.87311370e+01
  2.82539370e+00  6.40121700e-01  1.61277800e-01  1.87311370e+01  2.82539370e+00
  6.40121700e-01  1.61277800e-01  1.87311370e+01  2.82539370e+00  6.40121700e-01
  1.61277800e-01  1.87311370e+01  2.82539370e+00  6.40121700e-01  1.61277800e-01
  3.04752490e+03  4.57369510e+02  1.03948690e+02  2.92101550e+01  9.28666300e+00
  3.16392700e+00  7.86827240e+00  1.88128850e+00  5.44249300e-01  7.86827240e+00
  1.88128850e+00  5.44249300e-01  1.68714400e-01  1.68714400e-01  8.00000000e-01
  4.38000000e-02  4.38000000e-02  1.87311370e+01  2.82539370e+00  6.40121700e-01
  1.61277800e-01  1.87311370e+01  2.82539370e+00  6.40121700e-01  1.61277800e-01
  1.87311370e+01  2.82539370e+00  6.40121700e-01  1.61277800e-01  1.87311370e+01
  2.82539370e+00  6.40121700e-01  1.61277800e-01  1.87311370e+01  2.82539370e+00
  6.40121700e-01  1.61277800e-01
Contraction coefficients                   R   N=         352
  1.83470016e-03  1.40373012e-02  6.88426061e-02  2.32184421e-01  4.67941342e-01
  3.62312032e-01 -1.19332409e-01 -1.60854212e-01  1.14345648e+00  6.89990956e-02
  3.16423980e-01  7.44308252e-01  1.00000000e+00  1.00000000e+00  1.00000000e+00
  1.00000000e+00  1.00000000e+00  1.83470016e-03  1.40373012e-02  6.88426061e-02
  2.32184421e-01  4.67941342e-01  3.62312032e-01 -1.19332409e-01 -1.60854212e-01
  1.14345648e+00  6.89990956e-02  3.16423980e-01  7.44308252e-01  1.00000000e+00
  1.00000000e+00  1.00000000e+00  1.00000000e+00  1.00000000e+00  1.83470016e-03
  1.40373012e-02  6.88426061e-02  2.32184421e-01  4.67941342e-01  3.62312032e-01
 -1.19332409e-01 -1.60854212e-01  1.14345648e+00  6.89990956e-02  3.16423980e-01
  7.44308252e-01  1.00000000e+00  1.00000000e+00  1.00000000e+00  1.00000000e+00
  1.00000000e+00  1.83470016e-03  1.40373012e-02  6.88426061e-02  2.32184421e-01
  4.67941342e-01  3.62312032e-01 -1.19332409e-01 -1.60854212e-01  1.14345648e+00
  6.89990956e-02  3.16423980e-01  7.44308252e-01  1.00000000e+00  1.00000000e+00
  1.00000000e+00  1.00000000e+00  1.00000000e+00  1.83470016e-03  1.40373012e-02
  6.88426061e-02  2.32184421e-01  4.67941342e-01  3.62312032e-01 -1.19332409e-01
 -1.60854212e-01  1.14345648e+00  6.89990956e-02  3.16423980e-01  7.44308252e-01
  1.00000000e+00  1.00000000e+00  1.00000000e+00  1.00000000e+00  1.00000000e+00
  1.83470016e-03  1.40373012e-02  6.88426061e-02  2.32184421e-01  4.67941342e-01
  3.62312032e-01 -1.19332409e-01 -1.60854212e-01  1.14345648e+00  6.89990956e-02
  3.16423980e-01  7.44308252e-01  1.00000000e+00  1.00000000e+00  1.00000000e+00
  1.00000000e+00  1.00000000e+00  1.83479944e-03  1.39949958e-02  6.85869792e-02
  2.32240930e-01  4.69069858e-01  3.60454891e-01 -1.14961023e-01 -1.69118034e-01
  1.14585223e+00  6.75800232e-02  3.23907111e-01  7.40895255e-01  1.00000000e+00
  1.00000000e+00  1.00000000e+00  1.00000000e+00  1.00000000e+00  1.83470016e-03
  1.40373012e-02  6.88426061e-02  2.32184421e-01  4.67941342e-01  3.62312032e-01
 -1.19332409e-01 -1.60854212e-01  1.14345648e+00  6.89990956e-02  3.16423980e-01
  7.44308252e-01  1.00000000e+00  1.00000000e+00  1.00000000e+00  1.00000000e+00
  1.00000000e+00  1.83470016e-03  1.40373012e-02  6.88426061e-02  2.32184421e-01
  4.67941342e-01  3.62312032e-01 -1.19332409e-01 -1.60854212e-01  1.14345648e+00
  6.89990956e-02  3.16423980e-01  7.44308252e-01  1.00000000e+00  1.00000000e+00
  1.00000000e+00  1.00000000e+00  1.00000000e+00  3.34945995e-02  2.34726947e-01
  8.13757318e-01  1.00000000e+00  3.34945995e-02  2.34726947e-01  8.13757318e-01
  1.00000000e+00  3.34945995e-02  2.34726947e-01  8.13757318e-01  1.00000000e+00
  3.34945995e-02  2.34726947e-01  8.13757318e-01  1.00000000e+00  3.34945995e-02
  2.34726947e-01  8.13757318e-01  1.00000000e+00  1.83470016e-03  1.40373012e-02
  6.88426061e-02  2.32184421e-01  4.67941342e-01  3.62312032e-01 -1.19332409e-01
 -1.60854212e-01  1.14345648e+00  6.89990956e-02  3.16423980e-01  7.44308252e-01
  1.00000000e+00  1.00000000e+00  1.00000000e+00  1.00000000e+00  1.00000000e+00
  1.83470016e-03  1.40373012e-02  6.88426061e-02  2.32184421e-01  4.67941342e-01
  3.62312032e-01 -1.19332409e-01 -1.60854212e-01  1.14345648e+00  6.89990956e-02
  3.16423980e-01  7.44308252e-01  1.00000000e+00  1.00000000e+00  1.00000000e+00
  1.00000000e+00  1.00000000e+00  3.34945995e-02  2.34726947e-01  8.13757318e-01
  1.00000000e+00  3.34945995e-02  2.34726947e-01  8.13757318e-01  1.00000000e+00
  1.83479944e-03  1.39949958e-02  6.85869792e-02  2.32240930e-01  4.69069858e-01
  3.60454891e-01 -1.14961023e-01 -1.69118034e-01  1.14585223e+00  6.75800232e-02
  3.23907111e-01  7.40895255e-01  1.00000000e+00  1.00000000e+00  1.00000000e+00
  1.00000000e+00  1.00000000e+00  3.34945995e-02  2.34726947e-01  8.13757318e-01
  1.00000000e+00  3.34945995e-02  2.34726947e-01  8.13757318e-01  1.00000000e+00
  1.83470016e-03  1.40373012e-02  6.88426061e-02  2.32184421e-01  4.67941342e-01
  3.62312032e-01 -1.19332409e-01 -1.60854212e-01  1.14345648e+00  6.89990956e-02
  3.16423980e-01  7.44308252e-01  1.00000000e+00  1.00000000e+00  1.00000000e+00
  1.00000000e+00  1.00000000e+00  1.83470016e-03  1.40373012e-02  6.88426061e-02
  2.32184421e-01  4.67941342e-01  3.62312032e-01 -1.19332409e-01 -1.60854212e-01
  1.14345648e+00  6.89990956e-02  3.16423980e-01  7.44308252e-01  1.00000000e+00
  1.00000000e+00  1.00000000e+00  1.00000000e+00  1.00000000e+00  3.34945995e-02
  2.34726947e-01  8.13757318e-01  1.00000000e+00  1.83470016e-03  1.40373012e-02
  6.88426061e-02  2.32184421e-01  4.67941342e-01  3.62312032e-01 -1.19332409e-01
 -1.60854212e-01  1.14345648e+00  6.89990956e-02  3.16423980e-01  7.44308252e-01
  1.00000000e+00  1.00000000e+00  1.00000000e+00  1.00000000e+00  1.00000000e+00
  3.34945995e-02  2.34726947e-01  8.13757318e-01  1.00000000e+00  3.34945995e-02
  2.34726947e-01  8.13757318e-01  1.00000000e+00  3.34945995e-02  2.34726947e-01
  8.13757318e-01  1.00000000e+00  3.34945995e-02  2.34726947e-01  8.13757318e-01
  1.00000000e+00  3.34945995e-02  2.34726947e-01  8.13757318e-01  1.00000000e+00
  1.83470016e-03  1.40373012e-02  6.88426061e-02  2.32184421e-01  4.67941342e-01
  3.62312032e-01 -1.19332409e-01 -1.60854212e-01  1.14345648e+00  6.89990956e-02
  3.16423980e-01  7.44308252e-01  1.00000000e+00  1.00000000e+00  1.00000000e+00
  1.00000000e+00  1.00000000e+00  3.34945995e-02  2.34726947e-01  8.13757318e-01
  1.00000000e+00  3.34945995e-02  2.34726947e-01  8.13757318e-01  1.00000000e+00
  3.34945995e-02  2.34726947e-01  8.13757318e-01  1.00000000e+00  3.34945995e-02
  2.34726947e-01  8.13757318e-01  1.00000000e+00  3.34945995e-02  2.34726947e-01
  8.13757318e-01  1.00000000e+00
Coordinates of each shell                  R   N=         504
  3.16676199e-01 -8.28905707e-01 -2.39823640e+00  3.16676199e-01 -8.28905707e-01
 -2.39823640e+00  3.16676199e-01 -8.28905707e-01 -2.39823640e+00  3.16676199e-01
 -8.28905707e-01 -2.39823640e+00  3.16676199e-01 -8.28905707e-01 -2.39823640e+00
  3.16676199e-01 -8.28905707e-01 -2.39823640e+00  3.16676199e-01 -8.28905707e-01
 -2.39823640e+00  3.16676199e-01 -8.28905707e-01 -2.39823640e+00  4.08103984e+00
  1.60619134e+00 -2.73007986e-01  4.08103984e+00  1.60619134e+00 -2.73007986e-01
  4.08103984e+00  1.60619134e+00 -2.73007986e-01  4.08103984e+00  1.60619134e+00
 -2.73007986e-01  4.08103984e+00  1.60619134e+00 -2.73007986e-01  4.08103984e+00
  1.60619134e+00 -2.73007986e-01  4.08103984e+00  1.60619134e+00 -2.73007986e-01
  4.08103984e+00  1.60619134e+00 -2.73007986e-01  2.45286674e+00  8.65924045e-01
 -2.24278522e+00  2.45286674e+00  8.65924045e-01 -2.24278522e+00  2.45286674e+00
  8.65924045e-01 -2.24278522e+00  2.45286674e+00  8.65924045e-01 -2.24278522e+00
  2.45286674e+00  8.65924045e-01 -2.24278522e+00  2.45286674e+00  8.65924045e-01
 -2.24278522e+00  2.45286674e+00  8.65924045e-01 -2.24278522e+00  2.45286674e+00
  8.65924045e-01 -2.24278522e+00  6.02505843e+00  3.30033520e+00 -7.81937493e-01
  6.02505843e+00  3.30033520e+00 -7.81937493e-01  6.02505843e+00  3.30033520e+00
 -7.81937493e-01  6.02505843e+00  3.30033520e+00 -7.81937493e-01  6.02505843e+00
  3.30033520e+00 -7.81937493e-01  6.02505843e+00  3.30033520e+00 -7.81937493e-01
  6.02505843e+00  3.30033520e+00 -7.81937493e-01  6.02505843e+00  3.30033520e+00
 -7.81937493e-01  6.38358091e+00  4.28643438e+00 -3.23593763e+00  6.38358091e+00
  4.28643438e+00 -3.23593763e+00  6.38358091e+00  4.28643438e+00 -3.23593763e+00
  6.38358091e+00  4.28643438e+00 -3.23593763e+00  6.38358091e+00  4.28643438e+00
 -3.23593763e+00  6.38358091e+00  4.28643438e+00 -3.23593763e+00  6.38358091e+00
  4.28643438e+00 -3.23593763e+00  6.38358091e+00  4.28643438e+00 -3.23593763e+00
 -4.64722670e-01 -7.77725288e-01 -4.87451263e+00 -4.64722670e-01 -7.77725288e-01
 -4.87451263e+00 -4.64722670e-01 -7.77725288e-01 -4.87451263e+00 -4.64722670e-01
 -7.77725288e-01 -4.87451263e+00 -4.64722670e-01 -7.77725288e-01 -4.87451263e+00
 -4.64722670e-01 -7.77725288e-01 -4.87451263e+00 -4.64722670e-01 -7.77725288e-01
 -4.87451263e+00 -4.64722670e-01 -7.77725288e-01 -4.87451263e+00  1.04332918e+00
  8.49336142e-01 -6.26512000e+00  1.04332918e+00  8.49336142e-01 -6.26512000e+00
  1.04332918e+00  8.49336142e-01 -6.26512000e+00  1.04332918e+00  8.49336142e-01
 -6.26512000e+00  1.04332918e+00  8.49336142e-01 -6.26512000e+00  1.04332918e+00
  8.49336142e-01 -6.26512000e+00  1.04332918e+00  8.49336142e-01 -6.26512000e+00
  1.04332918e+00  8.49336142e-01 -6.26512000e+00  2.85836248e+00  1.88076213e+00
 -4.70122969e+00  2.85836248e+00  1.88076213e+00 -4.70122969e+00  2.85836248e+00
  1.88076213e+00 -4.70122969e+00  2.85836248e+00  1.88076213e+00 -4.70122969e+00
  2.85836248e+00  1.88076213e+00 -4.70122969e+00  2.85836248e+00  1.88076213e+00
 -4.70122969e+00  2.85836248e+00  1.88076213e+00 -4.70122969e+00  2.85836248e+00
  1.88076213e+00 -4.70122969e+00  4.80940248e+00  3.59000437e+00 -5.22476287e+00
  4.80940248e+00  3.59000437e+00 -5.22476287e+00  4.80940248e+00  3.59000437e+00
 -5.22476287e+00  4.80940248e+00  3.59000437e+00 -5.22476287e+00  4.80940248e+00
  3.59000437e+00 -5.22476287e+00  4.80940248e+00  3.59000437e+00 -5.22476287e+00
  4.80940248e+00  3.59000437e+00 -5.22476287e+00  4.80940248e+00  3.59000437e+00
 -5.22476287e+00  7.91652227e+00  5.60978828e+00 -3.57884896e+00  7.91652227e+00
  5.60978828e+00 -3.57884896e+00  5.09108945e+00  4.34722762e+00 -7.11457281e+00
  5.09108945e+00  4.34722762e+00 -7.11457281e+00  3.82609848e+00  8.62648271e-01
  1.62568332e+00  3.82609848e+00  8.62648271e-01  1.62568332e+00  8.75333973e-01
  1.17840376e+00 -8.13498372e+00  8.75333973e-01  1.17840376e+00 -8.13498372e+00
 -1.99400004e+00 -1.79403537e+00 -5.77595981e+00 -1.99400004e+00 -1.79403537e+00
 -5.77595981e+00 -8.48785375e-01 -2.32775107e+00 -2.82650325e-01 -8.48785375e-01
 -2.32775107e+00 -2.82650325e-01 -8.48785375e-01 -2.32775107e+00 -2.82650325e-01
 -8.48785375e-01 -2.32775107e+00 -2.82650325e-01 -8.48785375e-01 -2.32775107e+00
 -2.82650325e-01 -8.48785375e-01 -2.32775107e+00 -2.82650325e-01 -8.48785375e-01
 -2.32775107e+00 -2.82650325e-01 -8.48785375e-01 -2.32775107e+00 -2.82650325e-01
 -2.55998255e+00 -7.10811676e-01  1.43706080e+00 -2.55998255e+00 -7.10811676e-01
  1.43706080e+00 -2.55998255e+00 -7.10811676e-01  1.43706080e+00 -2.55998255e+00
 -7.10811676e-01  1.43706080e+00 -2.55998255e+00 -7.10811676e-01  1.43706080e+00
 -2.55998255e+00 -7.10811676e-01  1.43706080e+00 -2.55998255e+00 -7.10811676e-01
  1.43706080e+00 -2.55998255e+00 -7.10811676e-01  1.43706080e+00  6.62098340e-01
 -3.21053947e+00  8.31117135e-01  6.62098340e-01 -3.21053947e+00  8.31117135e-01
 -1.99362333e+00 -3.87465823e+00 -1.05427582e+00 -1.99362333e+00 -3.87465823e+00
 -1.05427582e+00 -3.97527980e+00 -2.19026303e+00  3.30529877e+00 -3.97527980e+00
 -2.19026303e+00  3.30529877e+00 -3.97527980e+00 -2.19026303e+00  3.30529877e+00
 -3.97527980e+00 -2.19026303e+00  3.30529877e+00 -3.97527980e+00 -2.19026303e+00
  3.30529877e+00 -3.97527980e+00 -2.19026303e+00  3.30529877e+00 -3.97527980e+00
 -2.19026303e+00  3.30529877e+00 -3.97527980e+00 -2.19026303e+00  3.30529877e+00
 -3.95314681e+00  2.30146363e-01  2.26932724e-01 -3.95314681e+00  2.30146363e-01
  2.26932724e-01 -1.42923109e+00  8.16729509e-01  2.30987122e+00 -1.42923109e+00
  8.16729509e-01  2.30987122e+00 -2.39538743e+00 -3.47097625e+00  5.19847856e+00
 -2.39538743e+00 -3.47097625e+00  5.19847856e+00 -2.39538743e+00 -3.47097625e+00
  5.19847856e+00 -2.39538743e+00 -3.47097625e+00  5.19847856e+00 -2.39538743e+00
 -3.47097625e+00  5.19847856e+00 -2.39538743e+00 -3.47097625e+00  5.19847856e+00
 -2.39538743e+00 -3.47097625e+00  5.19847856e+00 -2.39538743e+00 -3.47097625e+00
  5.19847856e+00 -6.07090683e+00 -7.20176855e-01  4.37371023e+00 -6.07090683e+00
 -7.20176855e-01  4.37371023e+00 -6.07090683e+00 -7.20176855e-01  4.37371023e+00
 -6.07090683e+00 -7.20176855e-01  4.37371023e+00 -6.07090683e+00 -7.20176855e-01
  4.37371023e+00 -6.07090683e+00 -7.20176855e-01  4.37371023e+00 -6.07090683e+00
 -7.20176855e-01  4.37371023e+00 -6.07090683e+00 -7.20176855e-01  4.37371023e+00
  7.29091472e+00  3.88026060e+00  7.28186950e-01  7.29091472e+00  3.88026060e+00
  7.28186950e-01 -9.32153159e-01 -1.79265708e+00  7.07579663e+00 -9.32153159e-01
 -1.79265708e+00  7.07579663e+00 -9.32153159e-01 -1.79265708e+00  7.07579663e+00
 -9.32153159e-01 -1.79265708e+00  7.07579663e+00 -9.32153159e-01 -1.79265708e+00
  7.07579663e+00 -9.32153159e-01 -1.79265708e+00  7.07579663e+00 -9.32153159e-01
 -1.79265708e+00  7.07579663e+00 -9.32153159e-01 -1.79265708e+00  7.07579663e+00
 -2.19924487e+00 -6.38482728e-01  8.23932421e+00 -2.19924487e+00 -6.38482728e-01
  8.23932421e+00  3.85717238e-01 -5.13088884e-01  6.11827841e+00  3.85717238e-01