Generated by Psi4
     FORCE                           RHF                       TESTBAS
Number of atoms                            I               33
Charge                                     I                0
Multiplicity                               I                1
Number of electrons                        I              148
Number of alpha electrons                  I               74
Number of beta electrons                   I               74
Number of basis functions                  I              410
Number of independent functions            I              410
Atomic numbers                             I   N=          33
           6           7           6           7           6           6
           6           6           6           1           6           6
           6           6           6           6           1           1
           1           1           8          17           1           1
           6           6           1           1           6           1
           1           1           1
Nuclear charges                            R   N=          33
  6.00000000e+00  7.00000000e+00  6.00000000e+00  7.00000000e+00  6.00000000e+00
  6.00000000e+00  6.00000000e+00  6.00000000e+00  6.00000000e+00  1.00000000e+00
  6.00000000e+00  6.00000000e+00  6.00000000e+00  6.00000000e+00  6.00000000e+00
  6.00000000e+00  1.00000000e+00  1.00000000e+00  1.00000000e+00  1.00000000e+00
  8.00000000e+00  1.70000000e+01  1.00000000e+00  1.00000000e+00  6.00000000e+00
  6.00000000e+00  1.00000000e+00  1.00000000e+00  6.00000000e+00  1.00000000e+00
  1.00000000e+00  1.00000000e+00  1.00000000e+00
Current cartesian coordinates              R   N=          99
 -2.05244213e+00  2.39960164e+00 -8.31142828e-01 -8.57565671e-01  4.28755914e+00
 -2.30844501e+00  2.31185415e-01  3.79781250e+00 -4.65144912e+00  2.36578035e+00
 -1.66259845e-01 -3.58525844e+00  5.71225562e-01  1.00852545e+00 -5.30603509e+00
  1.68313090e+00 -5.88776945e-01 -1.28985631e+00 -8.72366890e-01  6.02714696e-02
 -2.88094780e-01 -4.54397656e+00 -1.18612800e+00  2.17665248e+00 -2.16135069e+00
 -1.71543673e+00  1.21304340e+00 -1.27285384e+00 -3.51604838e+00  1.62470705e+00
  3.55217695e+00 -1.82592815e+00  4.25559243e-01  3.56036878e+00 -1.36801630e+00
  3.04077647e+00  5.38635703e+00 -2.47412269e+00  4.59356912e+00  7.21690850e+00
 -4.06892639e+00  3.55786645e+00  7.22292749e+00 -4.53866777e+00  9.55144467e-01
  5.41350933e+00 -3.42142493e+00 -5.98566692e-01  2.15781065e+00 -1.17669517e-01
  3.86686100e+00  5.37723358e+00 -2.08467769e+00  6.61029957e+00  8.63008725e+00
 -4.94004044e+00  4.76767363e+00  8.64028013e+00 -5.78022833e+00  1.37011549e-01
  9.00645447e-01  5.50625565e+00 -6.05317523e+00 -6.11568798e+00 -3.45300182e+00
  4.02333070e+00  1.32495024e+00  9.31011135e-01 -7.22195282e+00 -1.28145941e+00
  5.67730169e-02 -5.27197168e+00 -4.44953500e+00  2.90306092e+00  2.04180237e-01
 -5.69708037e+00  1.13881424e+00  1.69909688e+00 -5.36698668e+00  4.69244734e+00
 -1.94641496e-01 -7.55509697e+00  1.55196164e+00  2.46234540e+00 -1.22374180e+00
  6.95822343e+00 -1.65221260e+00 -1.36290323e+00  7.13477400e+00  3.98816720e-01
 -2.92182701e+00  7.75103900e+00 -2.53944794e+00  4.03991895e-01  8.01883376e+00
 -2.33946084e+00  5.41702947e+00 -3.75797485e+00 -2.62137491e+00
Integer atomic weights                     I   N=          33
          12          14          12          14          12          12
          12          12          12           1          12          12
          12          12          12          12           1           1
           1           1          15          34           1           1
          12          12           1           1          12           1
           1           1           1
Real atomic weights                        R   N=          33
  1.20000000e+01  1.40030740e+01  1.20000000e+01  1.40030740e+01  1.20000000e+01
  1.20000000e+01  1.20000000e+01  1.20000000e+01  1.20000000e+01  1.00782503e+00
  1.20000000e+01  1.20000000e+01  1.20000000e+01  1.20000000e+01  1.20000000e+01
  1.20000000e+01  1.00782503e+00  1.00782503e+00  1.00782503e+00  1.00782503e+00
  1.59949146e+01  3.49688527e+01  1.00782503e+00  1.00782503e+00  1.20000000e+01
  1.20000000e+01  1.00782503e+00  1.00782503e+00  1.20000000e+01  1.00782503e+00
  1.00782503e+00  1.00782503e+00  1.00782503e+00
Number of primitive shells                 I              404
Number of contracted shells                I              188
Pure/Cartesian d shells                    I                1
Pure/Cartesian f shells                    I                1
Highest angular momentum                   I                2
Largest degree of contraction              I                6
Shell types                                I   N=         188
           0           0           1           0           1           2
           0           1           0           0           1           0
           1           2           0           1           0           0
           1           0           1           2           0           1
           0           0           1           0           1           2
           0           1           0           0           1           0
           1           2           0           1           0           0
           1           0           1           2           0           1
           0           0           1           0           1           2
           0           1           0           0           1           0
           1           2           0           1           0           0
           1           0           1           2           0           1
           0           0           0           0           1           0
           1           2           0           1           0           0
           1           0           1           2           0           1
           0           0           1           0           1           2
           0           1           0           0           1           0
           1           2           0           1           0           0
           1           0           1           2           0           1
           0           0           1           0           1           2
           0           1           0           0           0           0
           0           0           0           0           0           0
           1           0           1           2           0           1
           0           0           1           0           1           0
           1           2           0           1           0           0
           0           0           0           0           1           0
           1           2           0           1           0           0
           1           0           1           2           0           1
           0           0           0           0           0           0
           1           0           1           2           0           1
           0           0           0           0           0           0
           0           0
Number of primitives per shell             I   N=         188
           6           3           3           1           1           1
           1           1           6           3           3           1
           1           1           1           1           6           3
           3           1           1           1           1           1
           6           3           3           1           1           1
           1           1           6           3           3           1
           1           1           1           1           6           3
           3           1           1           1           1           1
           6           3           3           1           1           1
           1           1           6           3           3           1
           1           1           1           1           6           3
           3           1           1           1           1           1
           3           1           6           3           3           1
           1           1           1           1           6           3
           3           1           1           1           1           1
           6           3           3           1           1           1
           1           1           6           3           3           1
           1           1           1           1           6           3
           3           1           1           1           1           1
           6           3           3           1           1           1
           1           1           3           1           3           1
           3           1           3           1           6           3
           3           1           1           1           1           1
           6           6           6           3           3           1
           1           1           1           1           3           1
           3           1           6           3           3           1
           1           1           1           1           6           3
           3           1           1           1           1           1
           3           1           3           1           6           3
           3           1           1           1           1           1
           3           1           3           1           3           1
           3           1
Shell to atom map                          I   N=         188
           1           1           1           1           1           1
           1           1           2           2           2           2
           2           2           2           2           3           3
           3           3           3           3           3           3
           4           4           4           4           4           4
           4           4           5           5           5           5
           5           5           5           5           6           6
           6           6           6           6           6           6
           7           7           7           7           7           7
           7           7           8           8           8           8
           8           8           8           8           9           9
           9           9           9           9           9           9
          10          10          11          11          11          11
          11          11          11          11          12          12
          12          12          12          12          12          12
          13          13          13          13          13          13
          13          13          14          14          14          14
          14          14          14          14          15          15
          15          15          15          15          15          15
          16          16          16          16          16          16
          16          16          17          17          18          18
          19          19          20          20          21          21
          21          21          21          21          21          21
          22          22          22          22          22          22
          22          22          22          22          23          23
          24          24          25          25          25          25
          25          25          25          25          26          26
          26          26          26          26          26          26
          27          27          28          28          29          29
          29          29          29          29          29          29
          30          30          31          31          32          32
          33          33
Primitive exponents                        R   N=         404
  3.04752490e+03  4.57369510e+02  1.03948690e+02  2.92101550e+01  9.28666300e+00
  3.16392700e+00  7.86827240e+00  1.88128850e+00  5.44249300e-01  7.86827240e+00
  1.88128850e+00  5.44249300e-01  1.68714400e-01  1.68714400e-01  8.00000000e-01
  4.38000000e-02  4.38000000e-02  4.17351100e+03  6.27457900e+02  1.42902100e+02
  4.02343300e+01  1.28202100e+01  4.39043700e+00  1.16263580e+01  2.71628000e+00
  7.72218000e-01  1.16263580e+01  2.71628000e+00  7.72218000e-01  2.12031300e-01
  2.12031300e-01  8.00000000e-01  6.39000000e-02  6.39000000e-02  3.04752490e+03
  4.57369510e+02  1.03948690e+02  2.92101550e+01  9.28666300e+00  3.16392700e+00
  7.86827240e+00  1.88128850e+00  5.44249300e-01  7.86827240e+00  1.88128850e+00
  5.44249300e-01  1.68714400e-01  1.68714400e-01  8.00000000e-01  4.38000000e-02
  4.38000000e-02  4.17351100e+03  6.27457900e+02  1.42902100e+02  4.02343300e+01
  1.28202100e+01  4.39043700e+00  1.16263580e+01  2.71628000e+00  7.72218000e-01
  1.16263580e+01  2.71628000e+00  7.72218000e-01  2.12031300e-01  2.12031300e-01
  8.00000000e-01  6.39000000e-02  6.39000000e-02  3.04752490e+03  4.57369510e+02
  1.03948690e+02  2.92101550e+01  9.28666300e+00  3.16392700e+00  7.86827240e+00
  1.88128850e+00  5.44249300e-01  7.86827240e+00  1.88128850e+00  5.44249300e-01
  1.68714400e-01  1.68714400e-01  8.00000000e-01  4.38000000e-02  4.38000000e-02
  3.04752490e+03  4.57369510e+02  1.03948690e+02  2.92101550e+01  9.28666300e+00
  3.16392700e+00  7.86827240e+00  1.88128850e+00  5.44249300e-01  7.86827240e+00
  1.88128850e+00  5.44249300e-01  1.68714400e-01  1.68714400e-01  8.00000000e-01
  4.38000000e-02  4.38000000e-02  3.04752490e+03  4.57369510e+02  1.03948690e+02
  2.92101550e+01  9.28666300e+00  3.16392700e+00  7.86827240e+00  1.88128850e+00
  5.44249300e-01  7.86827240e+00  1.88128850e+00  5.44249300e-01  1.68714400e-01
  1.68714400e-01  8.00000000e-01  4.38000000e-02  4.38000000e-02  3.04752490e+03
  4.57369510e+02  1.03948690e+02  2.92101550e+01  9.28666300e+00  3.16392700e+00
  7.86827240e+00  1.88128850e+00  5.44249300e-01  7.86827240e+00  1.88128850e+00
  5.44249300e-01  1.68714400e-01  1.68714400e-01  8.00000000e-01  4.38000000e-02
  4.38000000e-02  3.04752490e+03  4.57369510e+02  1.03948690e+02  2.92101550e+01
  9.28666300e+00  3.16392700e+00  7.86827240e+00  1.88128850e+00  5.44249300e-01
  7.86827240e+00  1.88128850e+00  5.44249300e-01  1.68714400e-01  1.68714400e-01
  8.00000000e-01  4.38000000e-02  4.38000000e-02  1.87311370e+01  2.82539370e+00
  6.40121700e-01  1.61277800e-01  3.04752490e+03  4.57369510e+02  1.03948690e+02
  2.92101550e+01  9.28666300e+00  3.16392700e+00  7.86827240e+00  1.88128850e+00
  5.44249300e-01  7.86827240e+00  1.88128850e+00  5.44249300e-01  1.68714400e-01
  1.68714400e-01  8.00000000e-01  4.38000000e-02  4.38000000e-02  3.04752490e+03
  4.57369510e+02  1.03948690e+02  2.92101550e+01  9.28666300e+00  3.16392700e+00
  7.86827240e+00  1.88128850e+00  5.44249300e-01  7.86827240e+00  1.88128850e+00
  5.44249300e-01  1.68714400e-01  1.68714400e-01  8.00000000e-01  4.38000000e-02
  4.38000000e-02  3.04752490e+03  4.57369510e+02  1.03948690e+02  2.92101550e+01
  9.28666300e+00  3.16392700e+00  7.86827240e+00  1.88128850e+00  5.44249300e-01
  7.86827240e+00  1.88128850e+00  5.44249300e-01  1.68714400e-01  1.68714400e-01
  8.00000000e-01  4.38000000e-02  4.38000000e-02  3.04752490e+03  4.57369510e+02
  1.03948690e+02  2.92101550e+01  9.28666300e+00  3.16392700e+00  7.86827240e+00
  1.88128850e+00  5.44249300e-01  7.86827240e+00  1.88128850e+00  5.44249300e-01
  1.68714400e-01  1.68714400e-01  8.00000000e-01  4.38000000e-02  4.38000000e-02
  3.04752490e+03  4.57369510e+02  1.03948690e+02  2.92101550e+01  9.28666300e+00
  3.16392700e+00  7.86827240e+00  1.88128850e+00  5.44249300e-01  7.86827240e+00
  1.88128850e+00  5.44249300e-01  1.68714400e-01  1.68714400e-01  8.00000000e-01
  4.38000000e-02  4.38000000e-02  3.04752490e+03  4.57369510e+02  1.03948690e+02
  2.92101550e+01  9.28666300e+00  3.16392700e+00  7.86827240e+00  1.88128850e+00
  5.44249300e-01  7.86827240e+00  1.88128850e+00  5.44249300e-01  1.68714400e-01
  1.68714400e-01  8.00000000e-01  4.38000000e-02  4.38000000e-02  1.87311370e+01
  2.82539370e+00  6.40121700e-01  1.61277800e-01  1.87311370e+01  2.82539370e+00
  6.40121700e-01  1.61277800e-01  1.87311370e+01  2.82539370e+00  6.40121700e-01
  1.61277800e-01  1.87311370e+01  2.82539370e+00  6.40121700e-01  1.61277800e-01
  5.48467170e+03  8.25234950e+02  1.88046960e+02  5.29645000e+01  1.68975700e+01
  5.79963530e+00  1.55396160e+01  3.59993360e+00  1.01376180e+00  1.55396160e+01
  3.59993360e+00  1.01376180e+00  2.70005800e-01  2.70005800e-01  8.00000000e-01
  8.45000000e-02  8.45000000e-02  2.51801000e+04  3.78035000e+03  8.60474000e+02
  2.42145000e+02  7.73349000e+01  2.62470000e+01  4.91765000e+02  1.16984000e+02
  3.74153000e+01  1.37834000e+01  5.45215000e+00  2.22588000e+00  4.91765000e+02
  1.16984000e+02  3.74153000e+01  1.37834000e+01  5.45215000e+00  2.22588000e+00
  3.18649000e+00  1.14427000e+00  4.20377000e-01  3.18649000e+00  1.14427000e+00
  4.20377000e-01  1.42657000e-01  1.42657000e-01  7.50000000e-01  4.83000000e-02
  4.83000000e-02  1.87311370e+01  2.82539370e+00  6.40121700e-01  1.61277800e-01
  1.87311370e+01  2.82539370e+00  6.40121700e-01  1.61277800e-01  3.04752490e+03
  4.57369510e+02  1.03948690e+02  2.92101550e+01  9.28666300e+00  3.16392700e+00
  7.86827240e+00  1.88128850e+00  5.44249300e-01  7.86827240e+00  1.88128850e+00
  5.44249300e-01  1.68714400e-01  1.68714400e-01  8.00000000e-01  4.38000000e-02
  4.38000000e-02  3.04752490e+03  4.57369510e+02  1.03948690e+02  2.92101550e+01
  9.28666300e+00  3.16392700e+00  7.86827240e+00  1.88128850e+00  5.44249300e-01
  7.86827240e+00  1.88128850e+00  5.44249300e-01  1.68714400e-01  1.68714400e-01
  8.00000000e-01  4.38000000e-02  4.38000000e-02  1.87311370e+01  2.82539370e+00
  6.40121700e-01  1.61277800e-01  1.87311370e+01  2.82539370e+00  6.40121700e-01
  1.61277800e-01  3.04752490e+03  4.57369510e+02  1.03948690e+02  2.92101550e+01
  9.28666300e+00  3.16392700e+00  7.86827240e+00  1.88128850e+00  5.44249300e-01
  7.86827240e+00  1.88128850e+00  5.44249300e-01  1.68714400e-01  1.68714400e-01
  8.00000000e-01  4.38000000e-02  4.38000000e-02  1.87311370e+01  2.82539370e+00
  6.40121700e-01  1.61277800e-01  1.87311370e+01  2.82539370e+00  6.40121700e-01
  1.61277800e-01  1.87311370e+01  2.82539370e+00  6.40121700e-01  1.61277800e-01
  1.87311370e+01  2.82539370e+00  6.40121700e-01  1.61277800e-01
Contraction coefficients                   R   N=         404
  1.83470016e-03  1.40373012e-02  6.88426061e-02  2.32184421e-01  4.67941342e-01
  3.62312032e-01 -1.19332409e-01 -1.60854212e-01  1.14345648e+00  6.89990956e-02
  3.16423980e-01  7.44308252e-01  1.00000000e+00  1.00000000e+00  1.00000000e+00
  1.00000000e+00  1.00000000e+00  1.83479944e-03  1.39949958e-02  6.85869792e-02
  2.32240930e-01  4.69069858e-01  3.60454891e-01 -1.14961023e-01 -1.69118034e-01
  1.14585223e+00  6.75800232e-02  3.23907111e-01  7.40895255e-01  1.00000000e+00
  1.00000000e+00  1.00000000e+00  1.00000000e+00  1.00000000e+00  1.83470016e-03
  1.40373012e-02  6.88426061e-02  2.32184421e-01  4.67941342e-01  3.62312032e-01
 -1.19332409e-01 -1.60854212e-01  1.14345648e+00  6.89990956e-02  3.16423980e-01
  7.44308252e-01  1.00000000e+00  1.00000000e+00  1.00000000e+00  1.00000000e+00
  1.00000000e+00  1.83479944e-03  1.39949958e-02  6.85869792e-02  2.32240930e-01
  4.69069858e-01  3.60454891e-01 -1.14961023e-01 -1.69118034e-01  1.14585223e+00
  6.75800232e-02  3.23907111e-01  7.40895255e-01  1.00000000e+00  1.00000000e+00
  1.00000000e+00  1.00000000e+00  1.00000000e+00  1.83470016e-03  1.40373012e-02
  6.88426061e-02  2.32184421e-01  4.67941342e-01  3.62312032e-01 -1.19332409e-01
 -1.60854212e-01  1.14345648e+00  6.89990956e-02  3.16423980e-01  7.44308252e-01
  1.00000000e+00  1.00000000e+00  1.00000000e+00  1.00000000e+00  1.00000000e+00
  1.83470016e-03  1.40373012e-02  6.88426061e-02  2.32184421e-01  4.67941342e-01
  3.62312032e-01 -1.19332409e-01 -1.60854212e-01  1.14345648e+00  6.89990956e-02
  3.16423980e-01  7.44308252e-01  1.00000000e+00  1.00000000e+00  1.00000000e+00
  1.00000000e+00  1.00000000e+00  1.83470016e-03  1.40373012e-02  6.88426061e-02
  2.32184421e-01  4.67941342e-01  3.62312032e-01 -1.19332409e-01 -1.60854212e-01
  1.14345648e+00  6.89990956e-02  3.16423980e-01  7.44308252e-01  1.00000000e+00
  1.00000000e+00  1.00000000e+00  1.00000000e+00  1.00000000e+00  1.83470016e-03
  1.40373012e-02  6.88426061e-02  2.32184421e-01  4.67941342e-01  3.62312032e-01
 -1.19332409e-01 -1.60854212e-01  1.14345648e+00  6.89990956e-02  3.16423980e-01
  7.44308252e-01  1.00000000e+00  1.00000000e+00  1.00000000e+00  1.00000000e+00
  1.00000000e+00  1.83470016e-03  1.40373012e-02  6.88426061e-02  2.32184421e-01
  4.67941342e-01  3.62312032e-01 -1.19332409e-01 -1.60854212e-01  1.14345648e+00
  6.89990956e-02  3.16423980e-01  7.44308252e-01  1.00000000e+00  1.00000000e+00
  1.00000000e+00  1.00000000e+00  1.00000000e+00  3.34945995e-02  2.34726947e-01
  8.13757318e-01  1.00000000e+00  1.83470016e-03  1.40373012e-02  6.88426061e-02
  2.32184421e-01  4.67941342e-01  3.62312032e-01 -1.19332409e-01 -1.60854212e-01
  1.14345648e+00  6.89990956e-02  3.16423980e-01  7.44308252e-01  1.00000000e+00
  1.00000000e+00  1.00000000e+00  1.00000000e+00  1.00000000e+00  1.83470016e-03
  1.40373012e-02  6.88426061e-02  2.32184421e-01  4.67941342e-01  3.62312032e-01
 -1.19332409e-01 -1.60854212e-01  1.14345648e+00  6.89990956e-02  3.16423980e-01
  7.44308252e-01  1.00000000e+00  1.00000000e+00  1.00000000e+00  1.00000000e+00
  1.00000000e+00  1.83470016e-03  1.40373012e-02  6.88426061e-02  2.32184421e-01
  4.67941342e-01  3.62312032e-01 -1.19332409e-01 -1.60854212e-01  1.14345648e+00
  6.89990956e-02  3.16423980e-01  7.44308252e-01  1.00000000e+00  1.00000000e+00
  1.00000000e+00  1.00000000e+00  1.00000000e+00  1.83470016e-03  1.40373012e-02
  6.88426061e-02  2.32184421e-01  4.67941342e-01  3.62312032e-01 -1.19332409e-01
 -1.60854212e-01  1.14345648e+00  6.89990956e-02  3.16423980e-01  7.44308252e-01
  1.00000000e+00  1.00000000e+00  1.00000000e+00  1.00000000e+00  1.00000000e+00
  1.83470016e-03  1.40373012e-02  6.88426061e-02  2.32184421e-01  4.67941342e-01
  3.62312032e-01 -1.19332409e-01 -1.60854212e-01  1.14345648e+00  6.89990956e-02
  3.16423980e-01  7.44308252e-01  1.00000000e+00  1.00000000e+00  1.00000000e+00
  1.00000000e+00  1.00000000e+00  1.83470016e-03  1.40373012e-02  6.88426061e-02
  2.32184421e-01  4.67941342e-01  3.62312032e-01 -1.19332409e-01 -1.60854212e-01
  1.14345648e+00  6.89990956e-02  3.16423980e-01  7.44308252e-01  1.00000000e+00
  1.00000000e+00  1.00000000e+00  1.00000000e+00  1.00000000e+00  3.34945995e-02
  2.34726947e-01  8.13757318e-01  1.00000000e+00  3.34945995e-02  2.34726947e-01
  8.13757318e-01  1.00000000e+00  3.34945995e-02  2.34726947e-01  8.13757318e-01
  1.00000000e+00  3.34945995e-02  2.34726947e-01  8.13757318e-01  1.00000000e+00
  1.83109981e-03  1.39500985e-02  6.84450927e-02  2.32714275e-01  4.70192950e-01
  3.58520862e-01 -1.10777504e-01 -1.48026305e-01  1.13076704e+00  7.08742995e-02
  3.39752798e-01  7.27158595e-01  1.00000000e+00  1.00000000e+00  1.00000000e+00
  1.00000000e+00  1.00000000e+00  1.83300031e-03  1.40340024e-02  6.90970118e-02
  2.37452040e-01  4.83034082e-01  3.39856058e-01 -2.29740199e-03 -3.07140266e-02
 -1.12528097e-01  4.50160390e-02  5.89353510e-01  4.65206403e-01  3.98940055e-03
  3.03180042e-02  1.29880018e-01  3.27951045e-01  4.53527062e-01  2.52154035e-01
 -2.51831288e-01  6.15893150e-02  1.06018542e+00 -1.42990127e-02  3.23572288e-01
  7.43507661e-01  1.00000000e+00  1.00000000e+00  1.00000000e+00  1.00000000e+00
  1.00000000e+00  3.34945995e-02  2.34726947e-01  8.13757318e-01  1.00000000e+00
  3.34945995e-02  2.34726947e-01  8.13757318e-01  1.00000000e+00  1.83470016e-03
  1.40373012e-02  6.88426061e-02  2.32184421e-01  4.67941342e-01  3.62312032e-01
 -1.19332409e-01 -1.60854212e-01  1.14345648e+00  6.89990956e-02  3.16423980e-01
  7.44308252e-01  1.00000000e+00  1.00000000e+00  1.00000000e+00  1.00000000e+00
  1.00000000e+00  1.83470016e-03  1.40373012e-02  6.88426061e-02  2.32184421e-01
  4.67941342e-01  3.62312032e-01 -1.19332409e-01 -1.60854212e-01  1.14345648e+00
  6.89990956e-02  3.16423980e-01  7.44308252e-01  1.00000000e+00  1.00000000e+00
  1.00000000e+00  1.00000000e+00  1.00000000e+00  3.34945995e-02  2.34726947e-01
  8.13757318e-01  1.00000000e+00  3.34945995e-02  2.34726947e-01  8.13757318e-01
  1.00000000e+00  1.83470016e-03  1.40373012e-02  6.88426061e-02  2.32184421e-01
  4.67941342e-01  3.62312032e-01 -1.19332409e-01 -1.60854212e-01  1.14345648e+00
  6.89990956e-02  3.16423980e-01  7.44308252e-01  1.00000000e+00  1.00000000e+00
  1.00000000e+00  1.00000000e+00  1.00000000e+00  3.34945995e-02  2.34726947e-01
  8.13757318e-01  1.00000000e+00  3.34945995e-02  2.34726947e-01  8.13757318e-01
  1.00000000e+00  3.34945995e-02  2.34726947e-01  8.13757318e-01  1.00000000e+00
  3.34945995e-02  2.34726947e-01  8.13757318e-01  1.00000000e+00
Coordinates of each shell                  R   N=         564
 -2.05244213e+00  2.39960164e+00 -8.31142828e-01 -2.05244213e+00  2.39960164e+00
 -8.31142828e-01 -2.05244213e+00  2.39960164e+00 -8.31142828e-01 -2.05244213e+00
  2.39960164e+00 -8.31142828e-01 -2.05244213e+00  2.39960164e+00 -8.31142828e-01
 -2.05244213e+00  2.39960164e+00 -8.31142828e-01 -2.05244213e+00  2.39960164e+00
 -8.31142828e-01 -2.05244213e+00  2.39960164e+00 -8.31142828e-01 -8.57565671e-01
  4.28755914e+00 -2.30844501e+00 -8.57565671e-01  4.28755914e+00 -2.30844501e+00
 -8.57565671e-01  4.28755914e+00 -2.30844501e+00 -8.57565671e-01  4.28755914e+00
 -2.30844501e+00 -8.57565671e-01  4.28755914e+00 -2.30844501e+00 -8.57565671e-01
  4.28755914e+00 -2.30844501e+00 -8.57565671e-01  4.28755914e+00 -2.30844501e+00
 -8.57565671e-01  4.28755914e+00 -2.30844501e+00  2.31185415e-01  3.79781250e+00
 -4.65144912e+00  2.31185415e-01  3.79781250e+00 -4.65144912e+00  2.31185415e-01
  3.79781250e+00 -4.65144912e+00  2.31185415e-01  3.79781250e+00 -4.65144912e+00
  2.31185415e-01  3.79781250e+00 -4.65144912e+00  2.31185415e-01  3.79781250e+00
 -4.65144912e+00  2.31185415e-01  3.79781250e+00 -4.65144912e+00  2.31185415e-01
  3.79781250e+00 -4.65144912e+00  2.36578035e+00 -1.66259845e-01 -3.58525844e+00
  2.36578035e+00 -1.66259845e-01 -3.58525844e+00  2.36578035e+00 -1.66259845e-01
 -3.58525844e+00  2.36578035e+00 -1.66259845e-01 -3.58525844e+00  2.36578035e+00
 -1.66259845e-01 -3.58525844e+00  2.36578035e+00 -1.66259845e-01 -3.58525844e+00
  2.36578035e+00 -1.66259845e-01 -3.58525844e+00  2.36578035e+00 -1.66259845e-01
 -3.58525844e+00  5.71225562e-01  1.00852545e+00 -5.30603509e+00  5.71225562e-01
  1.00852545e+00 -5.30603509e+00  5.71225562e-01  1.00852545e+00 -5.30603509e+00
  5.71225562e-01  1.00852545e+00 -5.30603509e+00  5.71225562e-01  1.00852545e+00
 -5.30603509e+00  5.71225562e-01  1.00852545e+00 -5.30603509e+00  5.71225562e-01
  1.00852545e+00 -5.30603509e+00  5.71225562e-01  1.00852545e+00 -5.30603509e+00
  1.68313090e+00 -5.88776945e-01 -1.28985631e+00  1.68313090e+00 -5.88776945e-01
 -1.28985631e+00  1.68313090e+00 -5.88776945e-01 -1.28985631e+00  1.68313090e+00
 -5.88776945e-01 -1.28985631e+00  1.68313090e+00 -5.88776945e-01 -1.28985631e+00
  1.68313090e+00 -5.88776945e-01 -1.28985631e+00  1.68313090e+00 -5.88776945e-01
 -1.28985631e+00  1.68313090e+00 -5.88776945e-01 -1.28985631e+00 -8.72366890e-01
  6.02714696e-02 -2.88094780e-01 -8.72366890e-01  6.02714696e-02 -2.88094780e-01
 -8.72366890e-01  6.02714696e-02 -2.88094780e-01 -8.72366890e-01  6.02714696e-02
 -2.88094780e-01 -8.72366890e-01  6.02714696e-02 -2.88094780e-01 -8.72366890e-01
  6.02714696e-02 -2.88094780e-01 -8.72366890e-01  6.02714696e-02 -2.88094780e-01
 -8.72366890e-01  6.02714696e-02 -2.88094780e-01 -4.54397656e+00 -1.18612800e+00
  2.17665248e+00 -4.54397656e+00 -1.18612800e+00  2.17665248e+00 -4.54397656e+00
 -1.18612800e+00  2.17665248e+00 -4.54397656e+00 -1.18612800e+00  2.17665248e+00
 -4.54397656e+00 -1.18612800e+00  2.17665248e+00 -4.54397656e+00 -1.18612800e+00
  2.17665248e+00 -4.54397656e+00 -1.18612800e+00  2.17665248e+00 -4.54397656e+00
 -1.18612800e+00  2.17665248e+00 -2.16135069e+00 -1.71543673e+00  1.21304340e+00
 -2.16135069e+00 -1.71543673e+00  1.21304340e+00 -2.16135069e+00 -1.71543673e+00
  1.21304340e+00 -2.16135069e+00 -1.71543673e+00  1.21304340e+00 -2.16135069e+00
 -1.71543673e+00  1.21304340e+00 -2.16135069e+00 -1.71543673e+00  1.21304340e+00
 -2.16135069e+00 -1.71543673e+00  1.21304340e+00 -2.16135069e+00 -1.71543673e+00
  1.21304340e+00 -1.27285384e+00 -3.51604838e+00  1.62470705e+00 -1.27285384e+00
 -3.51604838e+00  1.62470705e+00  3.55217695e+00 -1.82592815e+00  4.25559243e-01
  3.55217695e+00 -1.82592815e+00  4.25559243e-01  3.55217695e+00 -1.82592815e+00
  4.25559243e-01  3.55217695e+00 -1.82592815e+00  4.25559243e-01  3.55217695e+00
 -1.82592815e+00  4.25559243e-01  3.55217695e+00 -1.82592815e+00  4.25559243e-01
  3.55217695e+00 -1.82592815e+00  4.25559243e-01  3.55217695e+00 -1.82592815e+00
  4.25559243e-01  3.56036878e+00 -1.36801630e+00  3.04077647e+00  3.56036878e+00
 -1.36801630e+00  3.04077647e+00  3.56036878e+00 -1.36801630e+00  3.04077647e+00
  3.56036878e+00 -1.36801630e+00  3.04077647e+00  3.56036878e+00 -1.36801630e+00
  3.04077647e+00  3.56036878e+00 -1.36801630e+00  3.04077647e+00  3.56036878e+00
 -1.36801630e+00  3.04077647e+00  3.56036878e+00 -1.36801630e+00  3.04077647e+00
  5.38635703e+00 -2.47412269e+00  4.59356912e+00  5.38635703e+00 -2.47412269e+00
  4.59356912e+00  5.38635703e+00 -2.47412269e+00  4.59356912e+00  5.38635703e+00
 -2.47412269e+00  4.59356912e+00  5.38635703e+00 -2.47412269e+00  4.59356912e+00
  5.38635703e+00 -2.47412269e+00  4.59356912e+00  5.38635703e+00 -2.47412269e+00
  4.59356912e+00  5.38635703e+00 -2.47412269e+00  4.59356912e+00  7.21690850e+00
 -4.06892639e+00  3.55786645e+00  7.21690850e+00 -4.06892639e+00  3.55786645e+00