Generated by Psi4
     FORCE                           RHF                       TESTBAS
Number of atoms                            I               31
Charge                                     I                0
Multiplicity                               I                1
Number of electrons                        I              106
Number of alpha electrons                  I               53
Number of beta electrons                   I               53
Number of basis functions                  I              300
Number of independent functions            I              300
Atomic numbers                             I   N=          31
           6           6           6           1           1           7
           6           6           6           6           6           1
           1           1           8           6           1           1
           1           6           1           1           1           1
           1           1           8           6           1           1
           1
Nuclear charges                            R   N=          31
  6.00000000e+00  6.00000000e+00  6.00000000e+00  1.00000000e+00  1.00000000e+00
  7.00000000e+00  6.00000000e+00  6.00000000e+00  6.00000000e+00  6.00000000e+00
  6.00000000e+00  1.00000000e+00  1.00000000e+00  1.00000000e+00  8.00000000e+00
  6.00000000e+00  1.00000000e+00  1.00000000e+00  1.00000000e+00  6.00000000e+00
  1.00000000e+00  1.00000000e+00  1.00000000e+00  1.00000000e+00  1.00000000e+00
  1.00000000e+00  8.00000000e+00  6.00000000e+00  1.00000000e+00  1.00000000e+00
  1.00000000e+00
Current cartesian coordinates              R   N=          93
  1.46198389e-01 -8.14662794e-01  3.95364840e-01 -1.28778136e+00 -2.09058817e+00
  2.51344796e+00 -3.87580995e+00 -8.65319191e-01  3.19148475e+00 -1.08421731e-01
 -2.11373432e+00  4.22400436e+00 -1.64531364e+00 -4.06620781e+00  1.99498272e+00
 -5.36663007e+00 -2.39244809e+00  4.97122063e+00  2.22240538e+00  7.49632330e-01
  9.06708153e-01  3.55651084e+00  1.95280315e+00 -1.03696877e+00  2.80459782e+00
  1.58240485e+00 -3.54062300e+00  7.51430859e-01  2.30670788e-02 -4.08872436e+00
 -5.78652510e-01 -1.17501654e+00 -2.13905143e+00  2.77917305e+00  1.00141116e+00
  2.86404830e+00  3.84307867e+00  2.51577702e+00 -5.04423949e+00  2.10671864e-01
 -2.43203121e-01 -6.04720670e+00  5.60365680e+00  3.50619883e+00 -6.75831860e-01
  6.45133834e+00  3.94132910e+00  1.83061091e+00  7.03986074e+00  2.17557702e+00
  2.75076403e+00  4.98679912e+00  4.86141219e+00  2.97913438e+00  8.07819296e+00
  5.19904082e+00  1.66314889e+00 -3.57943243e+00  1.79709128e+00  4.28134786e+00
 -2.51316367e+00  1.74905281e+00  6.06512938e+00 -5.43719504e+00  2.61838674e+00
  4.67386696e+00 -2.56544235e+00  3.03798414e+00  2.97244300e+00 -4.99106872e+00
 -7.46745541e-01  1.44952812e+00 -4.42864617e+00 -2.58957745e+00  6.64484291e+00
 -5.64959507e+00 -4.16670313e+00  4.27762242e+00 -2.61024699e+00 -2.75360125e+00
 -2.53068636e+00 -3.39146303e+00 -3.23477938e+00 -5.05044703e+00 -4.00398627e+00
 -1.49396292e+00 -6.00016249e+00 -4.98990099e+00 -4.53121869e+00 -4.90637697e+00
 -1.87894843e+00 -4.12773331e+00 -6.15643412e+00
Integer atomic weights                     I   N=          31
          12          12          12           1           1          14
          12          12          12          12          12           1
           1           1          15          12           1           1
           1          12           1           1           1           1
           1           1          15          12           1           1
           1
Real atomic weights                        R   N=          31
  1.20000000e+01  1.20000000e+01  1.20000000e+01  1.00782503e+00  1.00782503e+00
  1.40030740e+01  1.20000000e+01  1.20000000e+01  1.20000000e+01  1.20000000e+01
  1.20000000e+01  1.00782503e+00  1.00782503e+00  1.00782503e+00  1.59949146e+01
  1.20000000e+01  1.00782503e+00  1.00782503e+00  1.00782503e+00  1.20000000e+01
  1.00782503e+00  1.00782503e+00  1.00782503e+00  1.00782503e+00  1.00782503e+00
  1.00782503e+00  1.59949146e+01  1.20000000e+01  1.00782503e+00  1.00782503e+00
  1.00782503e+00
Number of primitive shells                 I              306
Number of contracted shells                I              146
Pure/Cartesian d shells                    I                1
Pure/Cartesian f shells                    I                1
Highest angular momentum                   I                2
Largest degree of contraction              I                6
Shell types                                I   N=         146
           0           0           1           0           1           2
           0           1           0           0           1           0
           1           2           0           1           0           0
           1           0           1           2           0           1
           0           0           0           0           0           0
           1           0           1           2           0           1
           0           0           1           0           1           2
           0           1           0           0           1           0
           1           2           0           1           0           0
           1           0           1           2           0           1
           0           0           1           0           1           2
           0           1           0           0           1           0
           1           2           0           1           0           0
           0           0           0           0           0           0
           1           0           1           2           0           1
           0           0           1           0           1           2
           0           1           0           0           0           0
           0           0           0           0           1           0
           1           2           0           1           0           0
           0           0           0           0           0           0
           0           0           0           0           0           0
           1           0           1           2           0           1
           0           0           1           0           1           2
           0           1           0           0           0           0
           0           0
Number of primitives per shell             I   N=         146
           6           3           3           1           1           1
           1           1           6           3           3           1
           1           1           1           1           6           3
           3           1           1           1           1           1
           3           1           3           1           6           3
           3           1           1           1           1           1
           6           3           3           1           1           1
           1           1           6           3           3           1
           1           1           1           1           6           3
           3           1           1           1           1           1
           6           3           3           1           1           1
           1           1           6           3           3           1
           1           1           1           1           3           1
           3           1           3           1           6           3
           3           1           1           1           1           1
           6           3           3           1           1           1
           1           1           3           1           3           1
           3           1           6           3           3           1
           1           1           1           1           3           1
           3           1           3           1           3           1
           3           1           3           1           6           3
           3           1           1           1           1           1
           6           3           3           1           1           1
           1           1           3           1           3           1
           3           1
Shell to atom map                          I   N=         146
           1           1           1           1           1           1
           1           1           2           2           2           2
           2           2           2           2           3           3
           3           3           3           3           3           3
           4           4           5           5           6           6
           6           6           6           6           6           6
           7           7           7           7           7           7
           7           7           8           8           8           8
           8           8           8           8           9           9
           9           9           9           9           9           9
          10          10          10          10          10          10
          10          10          11          11          11          11
          11          11          11          11          12          12
          13          13          14          14          15          15
          15          15          15          15          15          15
          16          16          16          16          16          16
          16          16          17          17          18          18
          19          19          20          20          20          20
          20          20          20          20          21          21
          22          22          23          23          24          24
          25          25          26          26          27          27
          27          27          27          27          27          27
          28          28          28          28          28          28
          28          28          29          29          30          30
          31          31
Primitive exponents                        R   N=         306
  3.04752490e+03  4.57369510e+02  1.03948690e+02  2.92101550e+01  9.28666300e+00
  3.16392700e+00  7.86827240e+00  1.88128850e+00  5.44249300e-01  7.86827240e+00
  1.88128850e+00  5.44249300e-01  1.68714400e-01  1.68714400e-01  8.00000000e-01
  4.38000000e-02  4.38000000e-02  3.04752490e+03  4.57369510e+02  1.03948690e+02
  2.92101550e+01  9.28666300e+00  3.16392700e+00  7.86827240e+00  1.88128850e+00
  5.44249300e-01  7.86827240e+00  1.88128850e+00  5.44249300e-01  1.68714400e-01
  1.68714400e-01  8.00000000e-01  4.38000000e-02  4.38000000e-02  3.04752490e+03
  4.57369510e+02  1.03948690e+02  2.92101550e+01  9.28666300e+00  3.16392700e+00
  7.86827240e+00  1.88128850e+00  5.44249300e-01  7.86827240e+00  1.88128850e+00
  5.44249300e-01  1.68714400e-01  1.68714400e-01  8.00000000e-01  4.38000000e-02
  4.38000000e-02  1.87311370e+01  2.82539370e+00  6.40121700e-01  1.61277800e-01
  1.87311370e+01  2.82539370e+00  6.40121700e-01  1.61277800e-01  4.17351100e+03
  6.27457900e+02  1.42902100e+02  4.02343300e+01  1.28202100e+01  4.39043700e+00
  1.16263580e+01  2.71628000e+00  7.72218000e-01  1.16263580e+01  2.71628000e+00
  7.72218000e-01  2.12031300e-01  2.12031300e-01  8.00000000e-01  6.39000000e-02
  6.39000000e-02  3.04752490e+03  4.57369510e+02  1.03948690e+02  2.92101550e+01
  9.28666300e+00  3.16392700e+00  7.86827240e+00  1.88128850e+00  5.44249300e-01
  7.86827240e+00  1.88128850e+00  5.44249300e-01  1.68714400e-01  1.68714400e-01
  8.00000000e-01  4.38000000e-02  4.38000000e-02  3.04752490e+03  4.57369510e+02
  1.03948690e+02  2.92101550e+01  9.28666300e+00  3.16392700e+00  7.86827240e+00
  1.88128850e+00  5.44249300e-01  7.86827240e+00  1.88128850e+00  5.44249300e-01
  1.68714400e-01  1.68714400e-01  8.00000000e-01  4.38000000e-02  4.38000000e-02
  3.04752490e+03  4.57369510e+02  1.03948690e+02  2.92101550e+01  9.28666300e+00
  3.16392700e+00  7.86827240e+00  1.88128850e+00  5.44249300e-01  7.86827240e+00
  1.88128850e+00  5.44249300e-01  1.68714400e-01  1.68714400e-01  8.00000000e-01
  4.38000000e-02  4.38000000e-02  3.04752490e+03  4.57369510e+02  1.03948690e+02
  2.92101550e+01  9.28666300e+00  3.16392700e+00  7.86827240e+00  1.88128850e+00
  5.44249300e-01  7.86827240e+00  1.88128850e+00  5.44249300e-01  1.68714400e-01
  1.68714400e-01  8.00000000e-01  4.38000000e-02  4.38000000e-02  3.04752490e+03
  4.57369510e+02  1.03948690e+02  2.92101550e+01  9.28666300e+00  3.16392700e+00
  7.86827240e+00  1.88128850e+00  5.44249300e-01  7.86827240e+00  1.88128850e+00
  5.44249300e-01  1.68714400e-01  1.68714400e-01  8.00000000e-01  4.38000000e-02
  4.38000000e-02  1.87311370e+01  2.82539370e+00  6.40121700e-01  1.61277800e-01
  1.87311370e+01  2.82539370e+00  6.40121700e-01  1.61277800e-01  1.87311370e+01
  2.82539370e+00  6.40121700e-01  1.61277800e-01  5.48467170e+03  8.25234950e+02
  1.88046960e+02  5.29645000e+01  1.68975700e+01  5.79963530e+00  1.55396160e+01
  3.59993360e+00  1.01376180e+00  1.55396160e+01  3.59993360e+00  1.01376180e+00
  2.70005800e-01  2.70005800e-01  8.00000000e-01  8.45000000e-02  8.45000000e-02
  3.04752490e+03  4.57369510e+02  1.03948690e+02  2.92101550e+01  9.28666300e+00
  3.16392700e+00  7.86827240e+00  1.88128850e+00  5.44249300e-01  7.86827240e+00
  1.88128850e+00  5.44249300e-01  1.68714400e-01  1.68714400e-01  8.00000000e-01
  4.38000000e-02  4.38000000e-02  1.87311370e+01  2.82539370e+00  6.40121700e-01
  1.61277800e-01  1.87311370e+01  2.82539370e+00  6.40121700e-01  1.61277800e-01
  1.87311370e+01  2.82539370e+00  6.40121700e-01  1.61277800e-01  3.04752490e+03
  4.57369510e+02  1.03948690e+02  2.92101550e+01  9.28666300e+00  3.16392700e+00
  7.86827240e+00  1.88128850e+00  5.44249300e-01  7.86827240e+00  1.88128850e+00
  5.44249300e-01  1.68714400e-01  1.68714400e-01  8.00000000e-01  4.38000000e-02
  4.38000000e-02  1.87311370e+01  2.82539370e+00  6.40121700e-01  1.61277800e-01
  1.87311370e+01  2.82539370e+00  6.40121700e-01  1.61277800e-01  1.87311370e+01
  2.82539370e+00  6.40121700e-01  1.61277800e-01  1.87311370e+01  2.82539370e+00
  6.40121700e-01  1.61277800e-01  1.87311370e+01  2.82539370e+00  6.40121700e-01
  1.61277800e-01  1.87311370e+01  2.82539370e+00  6.40121700e-01  1.61277800e-01
  5.48467170e+03  8.25234950e+02  1.88046960e+02  5.29645000e+01  1.68975700e+01
  5.79963530e+00  1.55396160e+01  3.59993360e+00  1.01376180e+00  1.55396160e+01
  3.59993360e+00  1.01376180e+00  2.70005800e-01  2.70005800e-01  8.00000000e-01
  8.45000000e-02  8.45000000e-02  3.04752490e+03  4.57369510e+02  1.03948690e+02
  2.92101550e+01  9.28666300e+00  3.16392700e+00  7.86827240e+00  1.88128850e+00
  5.44249300e-01  7.86827240e+00  1.88128850e+00  5.44249300e-01  1.68714400e-01
  1.68714400e-01  8.00000000e-01  4.38000000e-02  4.38000000e-02  1.87311370e+01
  2.82539370e+00  6.40121700e-01  1.61277800e-01  1.87311370e+01  2.82539370e+00
  6.40121700e-01  1.61277800e-01  1.87311370e+01  2.82539370e+00  6.40121700e-01
  1.61277800e-01
Contraction coefficients                   R   N=         306
  1.83470016e-03  1.40373012e-02  6.88426061e-02  2.32184421e-01  4.67941342e-01
  3.62312032e-01 -1.19332409e-01 -1.60854212e-01  1.14345648e+00  6.89990956e-02
  3.16423980e-01  7.44308252e-01  1.00000000e+00  1.00000000e+00  1.00000000e+00
  1.00000000e+00  1.00000000e+00  1.83470016e-03  1.40373012e-02  6.88426061e-02
  2.32184421e-01  4.67941342e-01  3.62312032e-01 -1.19332409e-01 -1.60854212e-01
  1.14345648e+00  6.89990956e-02  3.16423980e-01  7.44308252e-01  1.00000000e+00
  1.00000000e+00  1.00000000e+00  1.00000000e+00  1.00000000e+00  1.83470016e-03
  1.40373012e-02  6.88426061e-02  2.32184421e-01  4.67941342e-01  3.62312032e-01
 -1.19332409e-01 -1.60854212e-01  1.14345648e+00  6.89990956e-02  3.16423980e-01
  7.44308252e-01  1.00000000e+00  1.00000000e+00  1.00000000e+00  1.00000000e+00
  1.00000000e+00  3.34945995e-02  2.34726947e-01  8.13757318e-01  1.00000000e+00
  3.34945995e-02  2.34726947e-01  8.13757318e-01  1.00000000e+00  1.83479944e-03
  1.39949958e-02  6.85869792e-02  2.32240930e-01  4.69069858e-01  3.60454891e-01
 -1.14961023e-01 -1.69118034e-01  1.14585223e+00  6.75800232e-02  3.23907111e-01
  7.40895255e-01  1.00000000e+00  1.00000000e+00  1.00000000e+00  1.00000000e+00
  1.00000000e+00  1.83470016e-03  1.40373012e-02  6.88426061e-02  2.32184421e-01
  4.67941342e-01  3.62312032e-01 -1.19332409e-01 -1.60854212e-01  1.14345648e+00
  6.89990956e-02  3.16423980e-01  7.44308252e-01  1.00000000e+00  1.00000000e+00
  1.00000000e+00  1.00000000e+00  1.00000000e+00  1.83470016e-03  1.40373012e-02
  6.88426061e-02  2.32184421e-01  4.67941342e-01  3.62312032e-01 -1.19332409e-01
 -1.60854212e-01  1.14345648e+00  6.89990956e-02  3.16423980e-01  7.44308252e-01
  1.00000000e+00  1.00000000e+00  1.00000000e+00  1.00000000e+00  1.00000000e+00
  1.83470016e-03  1.40373012e-02  6.88426061e-02  2.32184421e-01  4.67941342e-01
  3.62312032e-01 -1.19332409e-01 -1.60854212e-01  1.14345648e+00  6.89990956e-02
  3.16423980e-01  7.44308252e-01  1.00000000e+00  1.00000000e+00  1.00000000e+00
  1.00000000e+00  1.00000000e+00  1.83470016e-03  1.40373012e-02  6.88426061e-02
  2.32184421e-01  4.67941342e-01  3.62312032e-01 -1.19332409e-01 -1.60854212e-01
  1.14345648e+00  6.89990956e-02  3.16423980e-01  7.44308252e-01  1.00000000e+00
  1.00000000e+00  1.00000000e+00  1.00000000e+00  1.00000000e+00  1.83470016e-03
  1.40373012e-02  6.88426061e-02  2.32184421e-01  4.67941342e-01  3.62312032e-01
 -1.19332409e-01 -1.60854212e-01  1.14345648e+00  6.89990956e-02  3.16423980e-01
  7.44308252e-01  1.00000000e+00  1.00000000e+00  1.00000000e+00  1.00000000e+00
  1.00000000e+00  3.34945995e-02  2.34726947e-01  8.13757318e-01  1.00000000e+00
  3.34945995e-02  2.34726947e-01  8.13757318e-01  1.00000000e+00  3.34945995e-02
  2.34726947e-01  8.13757318e-01  1.00000000e+00  1.83109981e-03  1.39500985e-02
  6.84450927e-02  2.32714275e-01  4.70192950e-01  3.58520862e-01 -1.10777504e-01
 -1.48026305e-01  1.13076704e+00  7.08742995e-02  3.39752798e-01  7.27158595e-01
  1.00000000e+00  1.00000000e+00  1.00000000e+00  1.00000000e+00  1.00000000e+00
  1.83470016e-03  1.40373012e-02  6.88426061e-02  2.32184421e-01  4.67941342e-01
  3.62312032e-01 -1.19332409e-01 -1.60854212e-01  1.14345648e+00  6.89990956e-02
  3.16423980e-01  7.44308252e-01  1.00000000e+00  1.00000000e+00  1.00000000e+00
  1.00000000e+00  1.00000000e+00  3.34945995e-02  2.34726947e-01  8.13757318e-01
  1.00000000e+00  3.34945995e-02  2.34726947e-01  8.13757318e-01  1.00000000e+00
  3.34945995e-02  2.34726947e-01  8.13757318e-01  1.00000000e+00  1.83470016e-03
  1.40373012e-02  6.88426061e-02  2.32184421e-01  4.67941342e-01  3.62312032e-01
 -1.19332409e-01 -1.60854212e-01  1.14345648e+00  6.89990956e-02  3.16423980e-01
  7.44308252e-01  1.00000000e+00  1.00000000e+00  1.00000000e+00  1.00000000e+00
  1.00000000e+00  3.34945995e-02  2.34726947e-01  8.13757318e-01  1.00000000e+00
  3.34945995e-02  2.34726947e-01  8.13757318e-01  1.00000000e+00  3.34945995e-02
  2.34726947e-01  8.13757318e-01  1.00000000e+00  3.34945995e-02  2.34726947e-01
  8.13757318e-01  1.00000000e+00  3.34945995e-02  2.34726947e-01  8.13757318e-01
  1.00000000e+00  3.34945995e-02  2.34726947e-01  8.13757318e-01  1.00000000e+00
  1.83109981e-03  1.39500985e-02  6.84450927e-02  2.32714275e-01  4.70192950e-01
  3.58520862e-01 -1.10777504e-01 -1.48026305e-01  1.13076704e+00  7.08742995e-02
  3.39752798e-01  7.27158595e-01  1.00000000e+00  1.00000000e+00  1.00000000e+00
  1.00000000e+00  1.00000000e+00  1.83470016e-03  1.40373012e-02  6.88426061e-02
  2.32184421e-01  4.67941342e-01  3.62312032e-01 -1.19332409e-01 -1.60854212e-01
  1.14345648e+00  6.89990956e-02  3.16423980e-01  7.44308252e-01  1.00000000e+00
  1.00000000e+00  1.00000000e+00  1.00000000e+00  1.00000000e+00  3.34945995e-02
  2.34726947e-01  8.13757318e-01  1.00000000e+00  3.34945995e-02  2.34726947e-01
  8.13757318e-01  1.00000000e+00  3.34945995e-02  2.34726947e-01  8.13757318e-01
  1.00000000e+00
Coordinates of each shell                  R   N=         438
  1.46198389e-01 -8.14662794e-01  3.95364840e-01  1.46198389e-01 -8.14662794e-01
  3.95364840e-01  1.46198389e-01 -8.14662794e-01  3.95364840e-01  1.46198389e-01
 -8.14662794e-01  3.95364840e-01  1.46198389e-01 -8.14662794e-01  3.95364840e-01
  1.46198389e-01 -8.14662794e-01  3.95364840e-01  1.46198389e-01 -8.14662794e-01
  3.95364840e-01  1.46198389e-01 -8.14662794e-01  3.95364840e-01 -1.28778136e+00
 -2.09058817e+00  2.51344796e+00 -1.28778136e+00 -2.09058817e+00  2.51344796e+00
 -1.28778136e+00 -2.09058817e+00  2.51344796e+00 -1.28778136e+00 -2.09058817e+00
  2.51344796e+00 -1.28778136e+00 -2.09058817e+00  2.51344796e+00 -1.28778136e+00
 -2.09058817e+00  2.51344796e+00 -1.28778136e+00 -2.09058817e+00  2.51344796e+00
 -1.28778136e+00 -2.09058817e+00  2.51344796e+00 -3.87580995e+00 -8.65319191e-01
  3.19148475e+00 -3.87580995e+00 -8.65319191e-01  3.19148475e+00 -3.87580995e+00
 -8.65319191e-01  3.19148475e+00 -3.87580995e+00 -8.65319191e-01  3.19148475e+00
 -3.87580995e+00 -8.65319191e-01  3.19148475e+00 -3.87580995e+00 -8.65319191e-01
  3.19148475e+00 -3.87580995e+00 -8.65319191e-01  3.19148475e+00 -3.87580995e+00
 -8.65319191e-01  3.19148475e+00 -1.08421731e-01 -2.11373432e+00  4.22400436e+00
 -1.08421731e-01 -2.11373432e+00  4.22400436e+00 -1.64531364e+00 -4.06620781e+00
  1.99498272e+00 -1.64531364e+00 -4.06620781e+00  1.99498272e+00 -5.36663007e+00
 -2.39244809e+00  4.97122063e+00 -5.36663007e+00 -2.39244809e+00  4.97122063e+00
 -5.36663007e+00 -2.39244809e+00  4.97122063e+00 -5.36663007e+00 -2.39244809e+00
  4.97122063e+00 -5.36663007e+00 -2.39244809e+00  4.97122063e+00 -5.36663007e+00
 -2.39244809e+00  4.97122063e+00 -5.36663007e+00 -2.39244809e+00  4.97122063e+00
 -5.36663007e+00 -2.39244809e+00  4.97122063e+00  2.22240538e+00  7.49632330e-01
  9.06708153e-01  2.22240538e+00  7.49632330e-01  9.06708153e-01  2.22240538e+00
  7.49632330e-01  9.06708153e-01  2.22240538e+00  7.49632330e-01  9.06708153e-01
  2.22240538e+00  7.49632330e-01  9.06708153e-01  2.22240538e+00  7.49632330e-01
  9.06708153e-01  2.22240538e+00  7.49632330e-01  9.06708153e-01  2.22240538e+00
  7.49632330e-01  9.06708153e-01  3.55651084e+00  1.95280315e+00 -1.03696877e+00
  3.55651084e+00  1.95280315e+00 -1.03696877e+00  3.55651084e+00  1.95280315e+00
 -1.03696877e+00  3.55651084e+00  1.95280315e+00 -1.03696877e+00  3.55651084e+00
  1.95280315e+00 -1.03696877e+00  3.55651084e+00  1.95280315e+00 -1.03696877e+00
  3.55651084e+00  1.95280315e+00 -1.03696877e+00  3.55651084e+00  1.95280315e+00
 -1.03696877e+00  2.80459782e+00  1.58240485e+00 -3.54062300e+00  2.80459782e+00
  1.58240485e+00 -3.54062300e+00  2.80459782e+00  1.58240485e+00 -3.54062300e+00
  2.80459782e+00  1.58240485e+00 -3.54062300e+00  2.80459782e+00  1.58240485e+00
 -3.54062300e+00  2.80459782e+00  1.58240485e+00 -3.54062300e+00  2.80459782e+00
  1.58240485e+00 -3.54062300e+00  2.80459782e+00  1.58240485e+00 -3.54062300e+00
  7.51430859e-01  2.30670788e-02 -4.08872436e+00  7.51430859e-01  2.30670788e-02
 -4.08872436e+00  7.51430859e-01  2.30670788e-02 -4.08872436e+00  7.51430859e-01
  2.30670788e-02 -4.08872436e+00  7.51430859e-01  2.30670788e-02 -4.08872436e+00
  7.51430859e-01  2.30670788e-02 -4.08872436e+00  7.51430859e-01  2.30670788e-02
 -4.08872436e+00  7.51430859e-01  2.30670788e-02 -4.08872436e+00 -5.78652510e-01
 -1.17501654e+00 -2.13905143e+00 -5.78652510e-01 -1.17501654e+00 -2.13905143e+00
 -5.78652510e-01 -1.17501654e+00 -2.13905143e+00 -5.78652510e-01 -1.17501654e+00
 -2.13905143e+00 -5.78652510e-01 -1.17501654e+00 -2.13905143e+00 -5.78652510e-01
 -1.17501654e+00 -2.13905143e+00 -5.78652510e-01 -1.17501654e+00 -2.13905143e+00
 -5.78652510e-01 -1.17501654e+00 -2.13905143e+00  2.77917305e+00  1.00141116e+00
  2.86404830e+00  2.77917305e+00  1.00141116e+00  2.86404830e+00  3.84307867e+00
  2.51577702e+00 -5.04423949e+00  3.84307867e+00  2.51577702e+00 -5.04423949e+00
  2.10671864e-01 -2.43203121e-01 -6.04720670e+00  2.10671864e-01 -2.43203121e-01
 -6.04720670e+00  5.60365680e+00  3.50619883e+00 -6.75831860e-01  5.60365680e+00
  3.50619883e+00 -6.75831860e-01  5.60365680e+00  3.50619883e+00 -6.75831860e-01
  5.60365680e+00  3.50619883e+00 -6.75831860e-01  5.60365680e+00  3.50619883e+00
 -6.75831860e-01  5.60365680e+00  3.50619883e+00 -6.75831860e-01  5.60365680e+00
  3.50619883e+00 -6.75831860e-01  5.60365680e+00  3.50619883e+00 -6.75831860e-01
  6.45133834e+00  3.94132910e+00  1.83061091e+00  6.45133834e+00  3.94132910e+00
  1.83061091e+00  6.45133834e+00  3.94132910e+00  1.83061091e+00  6.45133834e+00
  3.94132910e+00  1.83061091e+00  6.45133834e+00  3.94132910e+00  1.83061091e+00
  6.45133834e+00  3.94132910e+00  1.83061091e+00  6.45133834e+00  3.94132910e+00
  1.83061091e+00  6.45133834e+00  3.94132910e+00  1.83061091e+00  7.03986074e+00
  2.17557702e+00  2.75076403e+00  7.03986074e+00  2.17557702e+00  2.75076403e+00
  4.98679912e+00  4.86141219e+00  2.97913438e+00  4.98679912e+00  4.86141219e+00
  2.97913438e+00  8.07819296e+00  5.19904082e+00  1.66314889e+00  8.07819296e+00
  5.19904082e+00  1.66314889e+00 -3.57943243e+00  1.79709128e+00  4.28134786e+00
 -3.57943243e+00  1.79709128e+00  4.28134786e+00 -3.57943243e+00  1.79709128e+00
  4.28134786e+00 -3.57943243e+00  1.79709128e+00  4.28134786e+00 -3.57943243e+00
  1.79709128e+00  4.28134786e+00 -3.57943243e+00  1.79709128e+00  4.28134786e+00
 -3.57943243e+00  1.79709128e+00  4.28134786e+00 -3.57943243e+00  1.79709128e+00
  4.28134786e+00 -2.51316367e+00  1.74905281e+00  6.06512938e+00 -2.51316367e+00
  1.74905281e+00  6.06512938e+00 -5.43719504e+00  2.61838674e+00  4.67386696e+00
 -5.43719504e+00  2.61838674e+00  4.67386696e+00 -2.56544235e+00  3.03798414e+00
  2.97244300e+00 -2.56544235e+00  3.03798414e+00  2.97244300e+00 -4.99106872e+00
 -7.46745541e-01  1.44952812e+00 -4.99106872e+00 -7.46745541e-01  1.44952812e+00
 -4.42864617e+00 -2.58957745e+00  6.64484291e+00 -4.42864617e+00 -2.58957745e+00
  6.64484291e+00 -5.64959507e+00 -4.16670313e+00  4.27762242e+00 -5.64959507e+00
 -4.16670313e+00  4.27762242e+00 -2.61024699e+00 -2.75360125e+00 -2.53068636e+00
 -2.61024699e+00 -2.75360125e+00 -2.53068636e+00 -2.61024699e+00 -2.75360125e+00
 -2.53068636e+00 -2.61024699e+00 -2.75360125e+00 -2.53068636e+00 -2.61024699e+00
 -2.75360125e+00 -2.53068636e+00 -2.61024699e+00 -2.75360125e+00 -2.53068636e+00
 -2.61024699e+00 -2.75360125e+00 -2.53068636e+00 -2.61024699e+00 -2.75360125e+00
 -2.53068636e+00 -3.39146303e+00 -3.23477938e+00 -5.05044703e+00 -3.39146303e+00
 -3.23477938e+00 -5.05044703e+00 -3.39146303e+00 -3.23477938e+00 -5.05044703e+00
 -3.39146303e+00 -3.23477938e+00 -5.05044703e+00 -3.39146303e+00 -3.23477938e+00
 -5.05044703e+00 -3.39146303e+00 -3.23477938e+00 -5.05044703e+00 -3.39146303e+00
 -3.23477938e+00 -5.05044703e+00 -3.39146303e+00 -3.23477938e+00 -5.05044703e+00
 -4.00398627e+00 -1.49396292e+00 -6.00016249e+00 -4.00398627e+00 -1.49396292e+00
 -6.00016249e+00 -4.98990099e+00 -4.53121869e+00 -4.90637697e+00 -4.98990099e+00
 -4.53121869e+00 -4.90637697e+00 -1.87894843e+00 -4.12773331e+00 -6.15643412e+00
 -1.87894843e+00 -4.12773331e+00 -6.15643412e+00
Total Energy                               R     -6.346049667159233e+02
Alpha Orbital Energies                     R   N=         300
 -1.91854154e+01 -1.91830638e+01 -1.43171597e+01 -1.02471664e+01 -1.02464676e+01
 -1.02458296e+01 -1.02436089e+01 -1.02131479e+01 -1.01997841e+01 -1.01962108e+01
 -1.01929513e+01 -1.01908248e+01 -1.01859724e+01 -1.01709659e+01 -1.06728858e+00
 -1.06520736e+00 -8.86043580e-01 -8.56065569e-01 -7.85127489e-01 -7.56428095e-01
 -7.33507354e-01 -7.22259095e-01 -6.93334839e-01 -6.69437591e-01 -6.10520035e-01
 -5.93754707e-01 -5.71842759e-01 -5.34097551e-01 -5.17764293e-01 -5.07470955e-01
 -4.90190483e-01 -4.74759068e-01 -4.69711408e-01 -4.56909473e-01 -4.51435423e-01
 -4.47037010e-01 -4.27888162e-01 -4.24682239e-01 -4.09437493e-01 -3.96452862e-01
 -3.93385641e-01 -3.84945199e-01 -3.66827675e-01 -3.64664747e-01 -3.52525622e-01
 -3.46419210e-01 -3.41221245e-01 -3.30302181e-01 -3.24142359e-01 -2.94635063e-01
 -2.57628351e-01 -2.34038581e-01 -2.03954919e-01 -1.52878020e-02 -7.12828605e-04
  5.18548996e-03  8.55814498e-03  1.36502335e-02  2.52503655e-02  2.59382088e-02
  3.01391367e-02  3.48545303e-02  4.07284515e-02  4.67746404e-02  5.21206267e-02
  5.56128009e-02  6.26677429e-02  6.67451967e-02  7.76795767e-02  7.85832769e-02
  8.74624421e-02  9.04137415e-02  9.54389413e-02  1.01759912e-01  1.03159280e-01
  1.15904404e-01  1.17504750e-01  1.25891181e-01  1.27650834e-01  1.28207196e-01
  1.33407831e-01  1.42947260e-01  1.43768776e-01  1.47573505e-01  1.50231049e-01
  1.57270305e-01  1.60004143e-01  1.64669507e-01  1.69248379e-01  1.74883252e-01
  1.84523723e-01  1.85763359e-01  1.93199939e-01  1.94135705e-01  2.02266056e-01
  2.05440582e-01  2.09602693e-01  2.15494362e-01  2.20608930e-01  2.24915374e-01
  2.28379711e-01  2.31474655e-01  2.32792365e-01  2.37078914e-01  2.40692783e-01
  2.48042506e-01  2.51198778e-01  2.52028746e-01  2.58549737e-01  2.61762622e-01
  2.67425626e-01  2.67887880e-01  2.81190885e-01  2.84867917e-01  2.90165844e-01
  2.94328301e-01  2.96699823e-01  2.99130363e-01  3.12429006e-01  3.13973547e-01
  3.17472775e-01  3.21852748e-01  3.25726563e-01  3.28285063e-01  3.34443431e-01
  3.39219217e-01  3.47981284e-01  3.56825961e-01  3.62736342e-01  3.68193252e-01
  3.73352625e-01  3.79765800e-01  3.93386731e-01  4.02186172e-01  4.21379758e-01
  4.33591470e-01  4.41333102e-01  4.49156755e-01  4.58795556e-01  4.65155485e-01
  4.91212244e-01  5.80948473e-01  6.26017301e-01  6.65486039e-01  6.70682991e-01
  6.74876377e-01  6.79655090e-01  6.80683316e-01  6.88329634e-01  6.90127284e-01
  7.03951593e-01  7.09003230e-01  7.18791954e-01  7.36167781e-01  7.49083110e-01
  7.54877566e-01  7.64595036e-01  7.71772849e-01  7.78986428e-01  7.93606978e-01