Generated by Psi4
     FORCE                           RHF                       TESTBAS
Number of atoms                            I               30
Charge                                     I                0
Multiplicity                               I                1
Number of electrons                        I              102
Number of alpha electrons                  I               51
Number of beta electrons                   I               51
Number of basis functions                  I              298
Number of independent functions            I              298
Atomic numbers                             I   N=          30
           6           6           6           6           6           6
           7           6           6           1           1           1
           1           1           6           6           1           1
           7           1           1           6           6           1
           1           1           1           1           1           1
Nuclear charges                            R   N=          30
  6.00000000e+00  6.00000000e+00  6.00000000e+00  6.00000000e+00  6.00000000e+00
  6.00000000e+00  7.00000000e+00  6.00000000e+00  6.00000000e+00  1.00000000e+00
  1.00000000e+00  1.00000000e+00  1.00000000e+00  1.00000000e+00  6.00000000e+00
  6.00000000e+00  1.00000000e+00  1.00000000e+00  7.00000000e+00  1.00000000e+00
  1.00000000e+00  6.00000000e+00  6.00000000e+00  1.00000000e+00  1.00000000e+00
  1.00000000e+00  1.00000000e+00  1.00000000e+00  1.00000000e+00  1.00000000e+00
Current cartesian coordinates              R   N=          90
 -3.44279799e-01 -1.18319018e+00 -1.43436705e+00  3.31890252e+00  1.40644723e+00
  6.86226296e-01  1.73036702e+00  5.87466679e-01 -1.28494857e+00  5.20388399e+00
  3.16373363e+00  1.69221406e-01  5.54175750e+00  4.13545028e+00 -2.29344174e+00
 -1.11305494e+00 -1.18515436e+00 -3.91514979e+00  3.47391188e-01  4.76400609e-01
 -5.31520775e+00  2.11437901e+00  1.58906135e+00 -3.75208422e+00  4.00601414e+00
  3.36157603e+00 -4.28357819e+00  7.02815468e+00  5.50950144e+00 -2.64195071e+00
  4.27169539e+00  4.10805281e+00 -6.17996169e+00  3.07776928e+00  6.76418537e-01
  2.59186007e+00  1.69170169e-01  7.90553292e-01 -7.18668204e+00 -2.59983149e+00
 -2.26458664e+00 -4.81433106e+00 -1.46682703e+00 -2.70343397e+00  6.88497891e-01
 -3.19412468e+00 -1.12420631e+00  2.42410866e+00  6.30572639e-02 -3.56096281e+00
  1.79628912e+00 -2.58949346e+00 -4.26949916e+00 -7.61831197e-02 -4.48387059e+00
 -2.62780232e+00  4.35858106e+00 -4.65114674e+00 -2.44600526e-01  1.24343615e+00
 -2.09724019e+00  4.41538391e-01  3.28437988e+00 -2.77500601e+00 -3.55258430e+00
  6.31391570e+00 -6.57348805e+00 -1.22477172e+00  5.48264628e+00  6.43873854e+00
  3.80555414e+00  1.67995560e+00 -7.91097654e+00 -6.54664629e-01  4.00948817e+00
 -5.94706855e+00  4.98763315e-01  6.49880707e+00 -7.57768349e+00 -2.43330943e+00
  6.83125749e+00 -1.30576848e+00 -4.75153949e+00  5.49313542e+00 -3.83662346e+00
 -4.70074129e+00  7.67032016e+00 -1.84052568e+00 -1.99817438e+00  7.36761750e+00
Integer atomic weights                     I   N=          30
          12          12          12          12          12          12
          14          12          12           1           1           1
           1           1          12          12           1           1
          14           1           1          12          12           1
           1           1           1           1           1           1
Real atomic weights                        R   N=          30
  1.20000000e+01  1.20000000e+01  1.20000000e+01  1.20000000e+01  1.20000000e+01
  1.20000000e+01  1.40030740e+01  1.20000000e+01  1.20000000e+01  1.00782503e+00
  1.00782503e+00  1.00782503e+00  1.00782503e+00  1.00782503e+00  1.20000000e+01
  1.20000000e+01  1.00782503e+00  1.00782503e+00  1.40030740e+01  1.00782503e+00
  1.00782503e+00  1.20000000e+01  1.20000000e+01  1.00782503e+00  1.00782503e+00
  1.00782503e+00  1.00782503e+00  1.00782503e+00  1.00782503e+00  1.00782503e+00
Number of primitive shells                 I              302
Number of contracted shells                I              144
Pure/Cartesian d shells                    I                1
Pure/Cartesian f shells                    I                1
Highest angular momentum                   I                2
Largest degree of contraction              I                6
Shell types                                I   N=         144
           0           0           1           0           1           2
           0           1           0           0           1           0
           1           2           0           1           0           0
           1           0           1           2           0           1
           0           0           1           0           1           2
           0           1           0           0           1           0
           1           2           0           1           0           0
           1           0           1           2           0           1
           0           0           1           0           1           2
           0           1           0           0           1           0
           1           2           0           1           0           0
           1           0           1           2           0           1
           0           0           0           0           0           0
           0           0           0           0           0           0
           1           0           1           2           0           1
           0           0           1           0           1           2
           0           1           0           0           0           0
           0           0           1           0           1           2
           0           1           0           0           0           0
           0           0           1           0           1           2
           0           1           0           0           1           0
           1           2           0           1           0           0
           0           0           0           0           0           0
           0           0           0           0           0           0
Number of primitives per shell             I   N=         144
           6           3           3           1           1           1
           1           1           6           3           3           1
           1           1           1           1           6           3
           3           1           1           1           1           1
           6           3           3           1           1           1
           1           1           6           3           3           1
           1           1           1           1           6           3
           3           1           1           1           1           1
           6           3           3           1           1           1
           1           1           6           3           3           1
           1           1           1           1           6           3
           3           1           1           1           1           1
           3           1           3           1           3           1
           3           1           3           1           6           3
           3           1           1           1           1           1
           6           3           3           1           1           1
           1           1           3           1           3           1
           6           3           3           1           1           1
           1           1           3           1           3           1
           6           3           3           1           1           1
           1           1           6           3           3           1
           1           1           1           1           3           1
           3           1           3           1           3           1
           3           1           3           1           3           1
Shell to atom map                          I   N=         144
           1           1           1           1           1           1
           1           1           2           2           2           2
           2           2           2           2           3           3
           3           3           3           3           3           3
           4           4           4           4           4           4
           4           4           5           5           5           5
           5           5           5           5           6           6
           6           6           6           6           6           6
           7           7           7           7           7           7
           7           7           8           8           8           8
           8           8           8           8           9           9
           9           9           9           9           9           9
          10          10          11          11          12          12
          13          13          14          14          15          15
          15          15          15          15          15          15
          16          16          16          16          16          16
          16          16          17          17          18          18
          19          19          19          19          19          19
          19          19          20          20          21          21
          22          22          22          22          22          22
          22          22          23          23          23          23
          23          23          23          23          24          24
          25          25          26          26          27          27
          28          28          29          29          30          30
Primitive exponents                        R   N=         302
  3.04752490e+03  4.57369510e+02  1.03948690e+02  2.92101550e+01  9.28666300e+00
  3.16392700e+00  7.86827240e+00  1.88128850e+00  5.44249300e-01  7.86827240e+00
  1.88128850e+00  5.44249300e-01  1.68714400e-01  1.68714400e-01  8.00000000e-01
  4.38000000e-02  4.38000000e-02  3.04752490e+03  4.57369510e+02  1.03948690e+02
  2.92101550e+01  9.28666300e+00  3.16392700e+00  7.86827240e+00  1.88128850e+00
  5.44249300e-01  7.86827240e+00  1.88128850e+00  5.44249300e-01  1.68714400e-01
  1.68714400e-01  8.00000000e-01  4.38000000e-02  4.38000000e-02  3.04752490e+03
  4.57369510e+02  1.03948690e+02  2.92101550e+01  9.28666300e+00  3.16392700e+00
  7.86827240e+00  1.88128850e+00  5.44249300e-01  7.86827240e+00  1.88128850e+00
  5.44249300e-01  1.68714400e-01  1.68714400e-01  8.00000000e-01  4.38000000e-02
  4.38000000e-02  3.04752490e+03  4.57369510e+02  1.03948690e+02  2.92101550e+01
  9.28666300e+00  3.16392700e+00  7.86827240e+00  1.88128850e+00  5.44249300e-01
  7.86827240e+00  1.88128850e+00  5.44249300e-01  1.68714400e-01  1.68714400e-01
  8.00000000e-01  4.38000000e-02  4.38000000e-02  3.04752490e+03  4.57369510e+02
  1.03948690e+02  2.92101550e+01  9.28666300e+00  3.16392700e+00  7.86827240e+00
  1.88128850e+00  5.44249300e-01  7.86827240e+00  1.88128850e+00  5.44249300e-01
  1.68714400e-01  1.68714400e-01  8.00000000e-01  4.38000000e-02  4.38000000e-02
  3.04752490e+03  4.57369510e+02  1.03948690e+02  2.92101550e+01  9.28666300e+00
  3.16392700e+00  7.86827240e+00  1.88128850e+00  5.44249300e-01  7.86827240e+00
  1.88128850e+00  5.44249300e-01  1.68714400e-01  1.68714400e-01  8.00000000e-01
  4.38000000e-02  4.38000000e-02  4.17351100e+03  6.27457900e+02  1.42902100e+02
  4.02343300e+01  1.28202100e+01  4.39043700e+00  1.16263580e+01  2.71628000e+00
  7.72218000e-01  1.16263580e+01  2.71628000e+00  7.72218000e-01  2.12031300e-01
  2.12031300e-01  8.00000000e-01  6.39000000e-02  6.39000000e-02  3.04752490e+03
  4.57369510e+02  1.03948690e+02  2.92101550e+01  9.28666300e+00  3.16392700e+00
  7.86827240e+00  1.88128850e+00  5.44249300e-01  7.86827240e+00  1.88128850e+00
  5.44249300e-01  1.68714400e-01  1.68714400e-01  8.00000000e-01  4.38000000e-02
  4.38000000e-02  3.04752490e+03  4.57369510e+02  1.03948690e+02  2.92101550e+01
  9.28666300e+00  3.16392700e+00  7.86827240e+00  1.88128850e+00  5.44249300e-01
  7.86827240e+00  1.88128850e+00  5.44249300e-01  1.68714400e-01  1.68714400e-01
  8.00000000e-01  4.38000000e-02  4.38000000e-02  1.87311370e+01  2.82539370e+00
  6.40121700e-01  1.61277800e-01  1.87311370e+01  2.82539370e+00  6.40121700e-01
  1.61277800e-01  1.87311370e+01  2.82539370e+00  6.40121700e-01  1.61277800e-01
  1.87311370e+01  2.82539370e+00  6.40121700e-01  1.61277800e-01  1.87311370e+01
  2.82539370e+00  6.40121700e-01  1.61277800e-01  3.04752490e+03  4.57369510e+02
  1.03948690e+02  2.92101550e+01  9.28666300e+00  3.16392700e+00  7.86827240e+00
  1.88128850e+00  5.44249300e-01  7.86827240e+00  1.88128850e+00  5.44249300e-01
  1.68714400e-01  1.68714400e-01  8.00000000e-01  4.38000000e-02  4.38000000e-02
  3.04752490e+03  4.57369510e+02  1.03948690e+02  2.92101550e+01  9.28666300e+00
  3.16392700e+00  7.86827240e+00  1.88128850e+00  5.44249300e-01  7.86827240e+00
  1.88128850e+00  5.44249300e-01  1.68714400e-01  1.68714400e-01  8.00000000e-01
  4.38000000e-02  4.38000000e-02  1.87311370e+01  2.82539370e+00  6.40121700e-01
  1.61277800e-01  1.87311370e+01  2.82539370e+00  6.40121700e-01  1.61277800e-01
  4.17351100e+03  6.27457900e+02  1.42902100e+02  4.02343300e+01  1.28202100e+01
  4.39043700e+00  1.16263580e+01  2.71628000e+00  7.72218000e-01  1.16263580e+01
  2.71628000e+00  7.72218000e-01  2.12031300e-01  2.12031300e-01  8.00000000e-01
  6.39000000e-02  6.39000000e-02  1.87311370e+01  2.82539370e+00  6.40121700e-01
  1.61277800e-01  1.87311370e+01  2.82539370e+00  6.40121700e-01  1.61277800e-01
  3.04752490e+03  4.57369510e+02  1.03948690e+02  2.92101550e+01  9.28666300e+00
  3.16392700e+00  7.86827240e+00  1.88128850e+00  5.44249300e-01  7.86827240e+00
  1.88128850e+00  5.44249300e-01  1.68714400e-01  1.68714400e-01  8.00000000e-01
  4.38000000e-02  4.38000000e-02  3.04752490e+03  4.57369510e+02  1.03948690e+02
  2.92101550e+01  9.28666300e+00  3.16392700e+00  7.86827240e+00  1.88128850e+00
  5.44249300e-01  7.86827240e+00  1.88128850e+00  5.44249300e-01  1.68714400e-01
  1.68714400e-01  8.00000000e-01  4.38000000e-02  4.38000000e-02  1.87311370e+01
  2.82539370e+00  6.40121700e-01  1.61277800e-01  1.87311370e+01  2.82539370e+00
  6.40121700e-01  1.61277800e-01  1.87311370e+01  2.82539370e+00  6.40121700e-01
  1.61277800e-01  1.87311370e+01  2.82539370e+00  6.40121700e-01  1.61277800e-01
  1.87311370e+01  2.82539370e+00  6.40121700e-01  1.61277800e-01  1.87311370e+01
  2.82539370e+00  6.40121700e-01  1.61277800e-01  1.87311370e+01  2.82539370e+00
  6.40121700e-01  1.61277800e-01
Contraction coefficients                   R   N=         302
  1.83470016e-03  1.40373012e-02  6.88426061e-02  2.32184421e-01  4.67941342e-01
  3.62312032e-01 -1.19332409e-01 -1.60854212e-01  1.14345648e+00  6.89990956e-02
  3.16423980e-01  7.44308252e-01  1.00000000e+00  1.00000000e+00  1.00000000e+00
  1.00000000e+00  1.00000000e+00  1.83470016e-03  1.40373012e-02  6.88426061e-02
  2.32184421e-01  4.67941342e-01  3.62312032e-01 -1.19332409e-01 -1.60854212e-01
  1.14345648e+00  6.89990956e-02  3.16423980e-01  7.44308252e-01  1.00000000e+00
  1.00000000e+00  1.00000000e+00  1.00000000e+00  1.00000000e+00  1.83470016e-03
  1.40373012e-02  6.88426061e-02  2.32184421e-01  4.67941342e-01  3.62312032e-01
 -1.19332409e-01 -1.60854212e-01  1.14345648e+00  6.89990956e-02  3.16423980e-01
  7.44308252e-01  1.00000000e+00  1.00000000e+00  1.00000000e+00  1.00000000e+00
  1.00000000e+00  1.83470016e-03  1.40373012e-02  6.88426061e-02  2.32184421e-01
  4.67941342e-01  3.62312032e-01 -1.19332409e-01 -1.60854212e-01  1.14345648e+00
  6.89990956e-02  3.16423980e-01  7.44308252e-01  1.00000000e+00  1.00000000e+00
  1.00000000e+00  1.00000000e+00  1.00000000e+00  1.83470016e-03  1.40373012e-02
  6.88426061e-02  2.32184421e-01  4.67941342e-01  3.62312032e-01 -1.19332409e-01
 -1.60854212e-01  1.14345648e+00  6.89990956e-02  3.16423980e-01  7.44308252e-01
  1.00000000e+00  1.00000000e+00  1.00000000e+00  1.00000000e+00  1.00000000e+00
  1.83470016e-03  1.40373012e-02  6.88426061e-02  2.32184421e-01  4.67941342e-01
  3.62312032e-01 -1.19332409e-01 -1.60854212e-01  1.14345648e+00  6.89990956e-02
  3.16423980e-01  7.44308252e-01  1.00000000e+00  1.00000000e+00  1.00000000e+00
  1.00000000e+00  1.00000000e+00  1.83479944e-03  1.39949958e-02  6.85869792e-02
  2.32240930e-01  4.69069858e-01  3.60454891e-01 -1.14961023e-01 -1.69118034e-01
  1.14585223e+00  6.75800232e-02  3.23907111e-01  7.40895255e-01  1.00000000e+00
  1.00000000e+00  1.00000000e+00  1.00000000e+00  1.00000000e+00  1.83470016e-03
  1.40373012e-02  6.88426061e-02  2.32184421e-01  4.67941342e-01  3.62312032e-01
 -1.19332409e-01 -1.60854212e-01  1.14345648e+00  6.89990956e-02  3.16423980e-01
  7.44308252e-01  1.00000000e+00  1.00000000e+00  1.00000000e+00  1.00000000e+00
  1.00000000e+00  1.83470016e-03  1.40373012e-02  6.88426061e-02  2.32184421e-01
  4.67941342e-01  3.62312032e-01 -1.19332409e-01 -1.60854212e-01  1.14345648e+00
  6.89990956e-02  3.16423980e-01  7.44308252e-01  1.00000000e+00  1.00000000e+00
  1.00000000e+00  1.00000000e+00  1.00000000e+00  3.34945995e-02  2.34726947e-01
  8.13757318e-01  1.00000000e+00  3.34945995e-02  2.34726947e-01  8.13757318e-01
  1.00000000e+00  3.34945995e-02  2.34726947e-01  8.13757318e-01  1.00000000e+00
  3.34945995e-02  2.34726947e-01  8.13757318e-01  1.00000000e+00  3.34945995e-02
  2.34726947e-01  8.13757318e-01  1.00000000e+00  1.83470016e-03  1.40373012e-02
  6.88426061e-02  2.32184421e-01  4.67941342e-01  3.62312032e-01 -1.19332409e-01
 -1.60854212e-01  1.14345648e+00  6.89990956e-02  3.16423980e-01  7.44308252e-01
  1.00000000e+00  1.00000000e+00  1.00000000e+00  1.00000000e+00  1.00000000e+00
  1.83470016e-03  1.40373012e-02  6.88426061e-02  2.32184421e-01  4.67941342e-01
  3.62312032e-01 -1.19332409e-01 -1.60854212e-01  1.14345648e+00  6.89990956e-02
  3.16423980e-01  7.44308252e-01  1.00000000e+00  1.00000000e+00  1.00000000e+00
  1.00000000e+00  1.00000000e+00  3.34945995e-02  2.34726947e-01  8.13757318e-01
  1.00000000e+00  3.34945995e-02  2.34726947e-01  8.13757318e-01  1.00000000e+00
  1.83479944e-03  1.39949958e-02  6.85869792e-02  2.32240930e-01  4.69069858e-01
  3.60454891e-01 -1.14961023e-01 -1.69118034e-01  1.14585223e+00  6.75800232e-02
  3.23907111e-01  7.40895255e-01  1.00000000e+00  1.00000000e+00  1.00000000e+00
  1.00000000e+00  1.00000000e+00  3.34945995e-02  2.34726947e-01  8.13757318e-01
  1.00000000e+00  3.34945995e-02  2.34726947e-01  8.13757318e-01  1.00000000e+00
  1.83470016e-03  1.40373012e-02  6.88426061e-02  2.32184421e-01  4.67941342e-01
  3.62312032e-01 -1.19332409e-01 -1.60854212e-01  1.14345648e+00  6.89990956e-02
  3.16423980e-01  7.44308252e-01  1.00000000e+00  1.00000000e+00  1.00000000e+00
  1.00000000e+00  1.00000000e+00  1.83470016e-03  1.40373012e-02  6.88426061e-02
  2.32184421e-01  4.67941342e-01  3.62312032e-01 -1.19332409e-01 -1.60854212e-01
  1.14345648e+00  6.89990956e-02  3.16423980e-01  7.44308252e-01  1.00000000e+00
  1.00000000e+00  1.00000000e+00  1.00000000e+00  1.00000000e+00  3.34945995e-02
  2.34726947e-01  8.13757318e-01  1.00000000e+00  3.34945995e-02  2.34726947e-01
  8.13757318e-01  1.00000000e+00  3.34945995e-02  2.34726947e-01  8.13757318e-01
  1.00000000e+00  3.34945995e-02  2.34726947e-01  8.13757318e-01  1.00000000e+00
  3.34945995e-02  2.34726947e-01  8.13757318e-01  1.00000000e+00  3.34945995e-02
  2.34726947e-01  8.13757318e-01  1.00000000e+00  3.34945995e-02  2.34726947e-01
  8.13757318e-01  1.00000000e+00
Coordinates of each shell                  R   N=         432
 -3.44279799e-01 -1.18319018e+00 -1.43436705e+00 -3.44279799e-01 -1.18319018e+00
 -1.43436705e+00 -3.44279799e-01 -1.18319018e+00 -1.43436705e+00 -3.44279799e-01
 -1.18319018e+00 -1.43436705e+00 -3.44279799e-01 -1.18319018e+00 -1.43436705e+00
 -3.44279799e-01 -1.18319018e+00 -1.43436705e+00 -3.44279799e-01 -1.18319018e+00
 -1.43436705e+00 -3.44279799e-01 -1.18319018e+00 -1.43436705e+00  3.31890252e+00
  1.40644723e+00  6.86226296e-01  3.31890252e+00  1.40644723e+00  6.86226296e-01
  3.31890252e+00  1.40644723e+00  6.86226296e-01  3.31890252e+00  1.40644723e+00
  6.86226296e-01  3.31890252e+00  1.40644723e+00  6.86226296e-01  3.31890252e+00
  1.40644723e+00  6.86226296e-01  3.31890252e+00  1.40644723e+00  6.86226296e-01
  3.31890252e+00  1.40644723e+00  6.86226296e-01  1.73036702e+00  5.87466679e-01
 -1.28494857e+00  1.73036702e+00  5.87466679e-01 -1.28494857e+00  1.73036702e+00
  5.87466679e-01 -1.28494857e+00  1.73036702e+00  5.87466679e-01 -1.28494857e+00
  1.73036702e+00  5.87466679e-01 -1.28494857e+00  1.73036702e+00  5.87466679e-01
 -1.28494857e+00  1.73036702e+00  5.87466679e-01 -1.28494857e+00  1.73036702e+00
  5.87466679e-01 -1.28494857e+00  5.20388399e+00  3.16373363e+00  1.69221406e-01
  5.20388399e+00  3.16373363e+00  1.69221406e-01  5.20388399e+00  3.16373363e+00
  1.69221406e-01  5.20388399e+00  3.16373363e+00  1.69221406e-01  5.20388399e+00
  3.16373363e+00  1.69221406e-01  5.20388399e+00  3.16373363e+00  1.69221406e-01
  5.20388399e+00  3.16373363e+00  1.69221406e-01  5.20388399e+00  3.16373363e+00
  1.69221406e-01  5.54175750e+00  4.13545028e+00 -2.29344174e+00  5.54175750e+00
  4.13545028e+00 -2.29344174e+00  5.54175750e+00  4.13545028e+00 -2.29344174e+00
  5.54175750e+00  4.13545028e+00 -2.29344174e+00  5.54175750e+00  4.13545028e+00
 -2.29344174e+00  5.54175750e+00  4.13545028e+00 -2.29344174e+00  5.54175750e+00
  4.13545028e+00 -2.29344174e+00  5.54175750e+00  4.13545028e+00 -2.29344174e+00
 -1.11305494e+00 -1.18515436e+00 -3.91514979e+00 -1.11305494e+00 -1.18515436e+00
 -3.91514979e+00 -1.11305494e+00 -1.18515436e+00 -3.91514979e+00 -1.11305494e+00
 -1.18515436e+00 -3.91514979e+00 -1.11305494e+00 -1.18515436e+00 -3.91514979e+00
 -1.11305494e+00 -1.18515436e+00 -3.91514979e+00 -1.11305494e+00 -1.18515436e+00
 -3.91514979e+00 -1.11305494e+00 -1.18515436e+00 -3.91514979e+00  3.47391188e-01
  4.76400609e-01 -5.31520775e+00  3.47391188e-01  4.76400609e-01 -5.31520775e+00
  3.47391188e-01  4.76400609e-01 -5.31520775e+00  3.47391188e-01  4.76400609e-01
 -5.31520775e+00  3.47391188e-01  4.76400609e-01 -5.31520775e+00  3.47391188e-01
  4.76400609e-01 -5.31520775e+00  3.47391188e-01  4.76400609e-01 -5.31520775e+00
  3.47391188e-01  4.76400609e-01 -5.31520775e+00  2.11437901e+00  1.58906135e+00
 -3.75208422e+00  2.11437901e+00  1.58906135e+00 -3.75208422e+00  2.11437901e+00
  1.58906135e+00 -3.75208422e+00  2.11437901e+00  1.58906135e+00 -3.75208422e+00
  2.11437901e+00  1.58906135e+00 -3.75208422e+00  2.11437901e+00  1.58906135e+00
 -3.75208422e+00  2.11437901e+00  1.58906135e+00 -3.75208422e+00  2.11437901e+00
  1.58906135e+00 -3.75208422e+00  4.00601414e+00  3.36157603e+00 -4.28357819e+00
  4.00601414e+00  3.36157603e+00 -4.28357819e+00  4.00601414e+00  3.36157603e+00
 -4.28357819e+00  4.00601414e+00  3.36157603e+00 -4.28357819e+00  4.00601414e+00
  3.36157603e+00 -4.28357819e+00  4.00601414e+00  3.36157603e+00 -4.28357819e+00
  4.00601414e+00  3.36157603e+00 -4.28357819e+00  4.00601414e+00  3.36157603e+00
 -4.28357819e+00  7.02815468e+00  5.50950144e+00 -2.64195071e+00  7.02815468e+00
  5.50950144e+00 -2.64195071e+00  4.27169539e+00  4.10805281e+00 -6.17996169e+00
  4.27169539e+00  4.10805281e+00 -6.17996169e+00  3.07776928e+00  6.76418537e-01
  2.59186007e+00  3.07776928e+00  6.76418537e-01  2.59186007e+00  1.69170169e-01
  7.90553292e-01 -7.18668204e+00  1.69170169e-01  7.90553292e-01 -7.18668204e+00
 -2.59983149e+00 -2.26458664e+00 -4.81433106e+00 -2.59983149e+00 -2.26458664e+00
 -4.81433106e+00 -1.46682703e+00 -2.70343397e+00  6.88497891e-01 -1.46682703e+00
 -2.70343397e+00  6.88497891e-01 -1.46682703e+00 -2.70343397e+00  6.88497891e-01
 -1.46682703e+00 -2.70343397e+00  6.88497891e-01 -1.46682703e+00 -2.70343397e+00
  6.88497891e-01 -1.46682703e+00 -2.70343397e+00  6.88497891e-01 -1.46682703e+00
 -2.70343397e+00  6.88497891e-01 -1.46682703e+00 -2.70343397e+00  6.88497891e-01
 -3.19412468e+00 -1.12420631e+00  2.42410866e+00 -3.19412468e+00 -1.12420631e+00
  2.42410866e+00 -3.19412468e+00 -1.12420631e+00  2.42410866e+00 -3.19412468e+00
 -1.12420631e+00  2.42410866e+00 -3.19412468e+00 -1.12420631e+00  2.42410866e+00
 -3.19412468e+00 -1.12420631e+00  2.42410866e+00 -3.19412468e+00 -1.12420631e+00
  2.42410866e+00 -3.19412468e+00 -1.12420631e+00  2.42410866e+00  6.30572639e-02
 -3.56096281e+00  1.79628912e+00  6.30572639e-02 -3.56096281e+00  1.79628912e+00
 -2.58949346e+00 -4.26949916e+00 -7.61831197e-02 -2.58949346e+00 -4.26949916e+00
 -7.61831197e-02 -4.48387059e+00 -2.62780232e+00  4.35858106e+00 -4.48387059e+00
 -2.62780232e+00  4.35858106e+00 -4.48387059e+00 -2.62780232e+00  4.35858106e+00
 -4.48387059e+00 -2.62780232e+00  4.35858106e+00 -4.48387059e+00 -2.62780232e+00
  4.35858106e+00 -4.48387059e+00 -2.62780232e+00  4.35858106e+00 -4.48387059e+00
 -2.62780232e+00  4.35858106e+00 -4.48387059e+00 -2.62780232e+00  4.35858106e+00
 -4.65114674e+00 -2.44600526e-01  1.24343615e+00 -4.65114674e+00 -2.44600526e-01
  1.24343615e+00 -2.09724019e+00  4.41538391e-01  3.28437988e+00 -2.09724019e+00
  4.41538391e-01  3.28437988e+00 -2.77500601e+00 -3.55258430e+00  6.31391570e+00
 -2.77500601e+00 -3.55258430e+00  6.31391570e+00 -2.77500601e+00 -3.55258430e+00
  6.31391570e+00 -2.77500601e+00 -3.55258430e+00  6.31391570e+00 -2.77500601e+00
 -3.55258430e+00  6.31391570e+00 -2.77500601e+00 -3.55258430e+00  6.31391570e+00
 -2.77500601e+00 -3.55258430e+00  6.31391570e+00 -2.77500601e+00 -3.55258430e+00
  6.31391570e+00 -6.57348805e+00 -1.22477172e+00  5.48264628e+00 -6.57348805e+00
 -1.22477172e+00  5.48264628e+00 -6.57348805e+00 -1.22477172e+00  5.48264628e+00
 -6.57348805e+00 -1.22477172e+00  5.48264628e+00 -6.57348805e+00 -1.22477172e+00
  5.48264628e+00 -6.57348805e+00 -1.22477172e+00  5.48264628e+00 -6.57348805e+00
 -1.22477172e+00  5.48264628e+00 -6.57348805e+00 -1.22477172e+00  5.48264628e+00
  6.43873854e+00  3.80555414e+00  1.67995560e+00  6.43873854e+00  3.80555414e+00
  1.67995560e+00 -7.91097654e+00 -6.54664629e-01  4.00948817e+00 -7.91097654e+00
 -6.54664629e-01  4.00948817e+00 -5.94706855e+00  4.98763315e-01  6.49880707e+00
 -5.94706855e+00  4.98763315e-01  6.49880707e+00 -7.57768349e+00 -2.43330943e+00
  6.83125749e+00 -7.57768349e+00 -2.43330943e+00  6.83125749e+00 -1.30576848e+00
 -4.75153949e+00  5.49313542e+00 -1.30576848e+00 -4.75153949e+00  5.49313542e+00
 -3.83662346e+00 -4.70074129e+00  7.67032016e+00 -3.83662346e+00 -4.70074129e+00
  7.67032016e+00 -1.84052568e+00 -1.99817438e+00  7.36761750e+00 -1.84052568e+00
 -1.99817438e+00  7.36761750e+00
Total Energy                               R     -5.764278525371492e+02
Alpha Orbital Energies                     R   N=         298
 -1.43847860e+01 -1.43305561e+01 -1.02228837e+01 -1.02216561e+01 -1.02075050e+01
 -1.02031654e+01 -1.02031233e+01 -1.01938085e+01 -1.01889633e+01 -1.01887423e+01
 -1.01886731e+01 -1.01867845e+01 -1.01857262e+01 -1.01839483e+01 -9.82038119e-01
 -9.21010727e-01 -8.40613738e-01 -8.03586707e-01 -7.48784314e-01 -7.36631082e-01
 -7.16029305e-01 -7.05089628e-01 -6.57277400e-01 -6.24578908e-01 -5.94517477e-01
 -5.83203254e-01 -5.57423218e-01 -5.39197956e-01 -4.89467674e-01 -4.77860731e-01
 -4.76381683e-01 -4.68505479e-01 -4.51810398e-01 -4.41144009e-01 -4.31802838e-01
 -4.23761874e-01 -4.19446414e-01 -3.97594154e-01 -3.93201505e-01 -3.90257799e-01
 -3.70875208e-01 -3.67658836e-01 -3.59992121e-01 -3.54355278e-01 -3.40601235e-01
 -3.35330980e-01 -3.30384542e-01 -2.74510225e-01 -2.25791874e-01 -2.18073484e-01
 -2.04059600e-01 -2.01236251e-02 -3.75274373e-03  6.43774518e-03  1.52259885e-02
  1.64984193e-02  2.14849649e-02  2.61591027e-02  3.01290470e-02  3.85840885e-02
  4.47999112e-02  4.86225222e-02  5.01917631e-02  5.18880784e-02  6.06208604e-02
  6.83947285e-02  6.95915247e-02  7.13324620e-02  8.06584651e-02  8.15052060e-02
  9.24272404e-02  9.73354166e-02  1.00676874e-01  1.05920536e-01  1.11747847e-01
  1.13146760e-01  1.19898204e-01  1.26301567e-01  1.30110059e-01  1.39201918e-01
  1.45659672e-01  1.48269176e-01  1.49503294e-01  1.53977434e-01  1.56398042e-01
  1.66391679e-01  1.67240993e-01  1.76075326e-01  1.79197061e-01  1.85547858e-01
  1.87342386e-01  1.89991641e-01  1.95314394e-01  2.01530380e-01  2.05826923e-01
  2.08161944e-01  2.10412600e-01  2.16137517e-01  2.19090087e-01  2.23467183e-01
  2.27125473e-01  2.29415178e-01  2.32692951e-01  2.36896369e-01  2.45731810e-01
  2.49985235e-01  2.54097327e-01  2.57964892e-01  2.61012535e-01  2.62003980e-01
  2.67415421e-01  2.73475300e-01  2.78230118e-01  2.80293915e-01  2.88166493e-01
  2.89507002e-01  2.95129783e-01  3.01301193e-01  3.06847845e-01  3.09641320e-01
  3.11009714e-01  3.16597090e-01  3.20204617e-01  3.23529901e-01  3.34342744e-01
  3.36590877e-01  3.44990507e-01  3.56268650e-01  3.58204736e-01  3.66638869e-01
  3.80377038e-01  3.87899068e-01  3.93012083e-01  4.05808576e-01  4.21470607e-01
  4.39733440e-01  4.54400946e-01  4.65638474e-01  4.79111060e-01  5.25912010e-01
  5.88751464e-01  6.21060880e-01  6.52675645e-01  6.64400579e-01  6.70882596e-01
  6.77918182e-01  6.88183995e-01  6.93919986e-01  7.05294974e-01  7.13486062e-01
  7.19496831e-01  7.29525412e-01  7.33513093e-01  7.38422170e-01  7.45590490e-01
  7.58928621e-01  7.63670037e-01  7.73323177e-01  7.89598605e-01  7.94558110e-01
  8.07547127e-01  8.15084220e-01  8.31471442e-01  8.50555348e-01  8.62042088e-01
  8.68949044e-01  8.76710364e-01  8.99079536e-01  9.05330021e-01  9.16675189e-01
  9.22106366e-01  9.41864116e-01  9.45048827e-01  9.52878271e-01  9.72262593e-01
  9.73950892e-01  9.78906498e-01  9.82996791e-01  9.90860732e-01  1.00031309e+00
  1.00728971e+00  1.03783933e+00  1.05167698e+00  1.05232112e+00  1.07183942e+00