Generated by Psi4
     FORCE                           RHF                       TESTBAS
Number of atoms                            I               24
Charge                                     I                0
Multiplicity                               I                1
Number of electrons                        I               86
Number of alpha electrons                  I               43
Number of beta electrons                   I               43
Number of basis functions                  I              252
Number of independent functions            I              252
Atomic numbers                             I   N=          24
           6           6           6           6           6           6
           7           6           6           1           1           1
           1           1           6           6           1           1
           7           1           1           1           1           1
Nuclear charges                            R   N=          24
  6.00000000e+00  6.00000000e+00  6.00000000e+00  6.00000000e+00  6.00000000e+00
  6.00000000e+00  7.00000000e+00  6.00000000e+00  6.00000000e+00  1.00000000e+00
  1.00000000e+00  1.00000000e+00  1.00000000e+00  1.00000000e+00  6.00000000e+00
  6.00000000e+00  1.00000000e+00  1.00000000e+00  7.00000000e+00  1.00000000e+00
  1.00000000e+00  1.00000000e+00  1.00000000e+00  1.00000000e+00
Current cartesian coordinates              R   N=          72
 -1.20933863e+00 -1.54775489e+00 -5.32161529e-01  2.38600014e+00  8.62186649e-01
  1.89056022e+00  8.88860255e-01  1.69534768e-01 -1.96772347e-01  4.32890734e+00
  2.60031696e+00  1.55262289e+00  4.81586313e+00  3.67233951e+00 -8.42224448e-01
 -1.84223839e+00 -1.42898823e+00 -3.04829128e+00 -2.79505569e-01  2.62793667e-01
 -4.29484891e+00  1.42248647e+00  1.26885136e+00 -2.59292396e+00  3.37389815e+00
  3.02103519e+00 -2.94399445e+00  6.34531848e+00  5.02737589e+00 -1.05041069e+00
  3.75613955e+00  3.84408836e+00 -4.78809417e+00  2.03472133e+00  4.70432306e-02
  3.74385926e+00 -3.56061000e-01  6.65994723e-01 -6.15591936e+00 -3.29878107e+00
 -2.43597083e+00 -4.07239455e+00 -2.46464191e+00 -3.11366545e+00  1.47668431e+00
 -4.21424261e+00 -1.57976073e+00  3.22287179e+00 -1.04429204e+00 -4.05402542e+00
  2.66140121e+00 -3.57170923e+00 -4.62726270e+00  5.81755003e-01 -5.25960302e+00
 -3.20758479e+00  5.21337825e+00  5.49515659e+00  3.14511725e+00  3.15333274e+00
 -6.44903401e+00 -4.52391210e+00  4.46361543e+00 -6.29028365e+00 -2.17823008e+00
  6.47028886e+00 -5.66538082e+00 -6.35839295e-01  2.05858100e+00 -3.12268770e+00
 -8.19482543e-02  4.14754988e+00
Integer atomic weights                     I   N=          24
          12          12          12          12          12          12
          14          12          12           1           1           1
           1           1          12          12           1           1
          14           1           1           1           1           1
Real atomic weights                        R   N=          24
  1.20000000e+01  1.20000000e+01  1.20000000e+01  1.20000000e+01  1.20000000e+01
  1.20000000e+01  1.40030740e+01  1.20000000e+01  1.20000000e+01  1.00782503e+00
  1.00782503e+00  1.00782503e+00  1.00782503e+00  1.00782503e+00  1.20000000e+01
  1.20000000e+01  1.00782503e+00  1.00782503e+00  1.40030740e+01  1.00782503e+00
  1.00782503e+00  1.00782503e+00  1.00782503e+00  1.00782503e+00
Number of primitive shells                 I              252
Number of contracted shells                I              120
Pure/Cartesian d shells                    I                1
Pure/Cartesian f shells                    I                1
Highest angular momentum                   I                2
Largest degree of contraction              I                6
Shell types                                I   N=         120
           0           0           1           0           1           2
           0           1           0           0           1           0
           1           2           0           1           0           0
           1           0           1           2           0           1
           0           0           1           0           1           2
           0           1           0           0           1           0
           1           2           0           1           0           0
           1           0           1           2           0           1
           0           0           1           0           1           2
           0           1           0           0           1           0
           1           2           0           1           0           0
           1           0           1           2           0           1
           0           0           0           0           0           0
           0           0           0           0           0           0
           1           0           1           2           0           1
           0           0           1           0           1           2
           0           1           0           0           0           0
           0           0           1           0           1           2
           0           1           0           0           0           0
           0           0           0           0           0           0
Number of primitives per shell             I   N=         120
           6           3           3           1           1           1
           1           1           6           3           3           1
           1           1           1           1           6           3
           3           1           1           1           1           1
           6           3           3           1           1           1
           1           1           6           3           3           1
           1           1           1           1           6           3
           3           1           1           1           1           1
           6           3           3           1           1           1
           1           1           6           3           3           1
           1           1           1           1           6           3
           3           1           1           1           1           1
           3           1           3           1           3           1
           3           1           3           1           6           3
           3           1           1           1           1           1
           6           3           3           1           1           1
           1           1           3           1           3           1
           6           3           3           1           1           1
           1           1           3           1           3           1
           3           1           3           1           3           1
Shell to atom map                          I   N=         120
           1           1           1           1           1           1
           1           1           2           2           2           2
           2           2           2           2           3           3
           3           3           3           3           3           3
           4           4           4           4           4           4
           4           4           5           5           5           5
           5           5           5           5           6           6
           6           6           6           6           6           6
           7           7           7           7           7           7
           7           7           8           8           8           8
           8           8           8           8           9           9
           9           9           9           9           9           9
          10          10          11          11          12          12
          13          13          14          14          15          15
          15          15          15          15          15          15
          16          16          16          16          16          16
          16          16          17          17          18          18
          19          19          19          19          19          19
          19          19          20          20          21          21
          22          22          23          23          24          24
Primitive exponents                        R   N=         252
  3.04752490e+03  4.57369510e+02  1.03948690e+02  2.92101550e+01  9.28666300e+00
  3.16392700e+00  7.86827240e+00  1.88128850e+00  5.44249300e-01  7.86827240e+00
  1.88128850e+00  5.44249300e-01  1.68714400e-01  1.68714400e-01  8.00000000e-01
  4.38000000e-02  4.38000000e-02  3.04752490e+03  4.57369510e+02  1.03948690e+02
  2.92101550e+01  9.28666300e+00  3.16392700e+00  7.86827240e+00  1.88128850e+00
  5.44249300e-01  7.86827240e+00  1.88128850e+00  5.44249300e-01  1.68714400e-01
  1.68714400e-01  8.00000000e-01  4.38000000e-02  4.38000000e-02  3.04752490e+03
  4.57369510e+02  1.03948690e+02  2.92101550e+01  9.28666300e+00  3.16392700e+00
  7.86827240e+00  1.88128850e+00  5.44249300e-01  7.86827240e+00  1.88128850e+00
  5.44249300e-01  1.68714400e-01  1.68714400e-01  8.00000000e-01  4.38000000e-02
  4.38000000e-02  3.04752490e+03  4.57369510e+02  1.03948690e+02  2.92101550e+01
  9.28666300e+00  3.16392700e+00  7.86827240e+00  1.88128850e+00  5.44249300e-01
  7.86827240e+00  1.88128850e+00  5.44249300e-01  1.68714400e-01  1.68714400e-01
  8.00000000e-01  4.38000000e-02  4.38000000e-02  3.04752490e+03  4.57369510e+02
  1.03948690e+02  2.92101550e+01  9.28666300e+00  3.16392700e+00  7.86827240e+00
  1.88128850e+00  5.44249300e-01  7.86827240e+00  1.88128850e+00  5.44249300e-01
  1.68714400e-01  1.68714400e-01  8.00000000e-01  4.38000000e-02  4.38000000e-02
  3.04752490e+03  4.57369510e+02  1.03948690e+02  2.92101550e+01  9.28666300e+00
  3.16392700e+00  7.86827240e+00  1.88128850e+00  5.44249300e-01  7.86827240e+00
  1.88128850e+00  5.44249300e-01  1.68714400e-01  1.68714400e-01  8.00000000e-01
  4.38000000e-02  4.38000000e-02  4.17351100e+03  6.27457900e+02  1.42902100e+02
  4.02343300e+01  1.28202100e+01  4.39043700e+00  1.16263580e+01  2.71628000e+00
  7.72218000e-01  1.16263580e+01  2.71628000e+00  7.72218000e-01  2.12031300e-01
  2.12031300e-01  8.00000000e-01  6.39000000e-02  6.39000000e-02  3.04752490e+03
  4.57369510e+02  1.03948690e+02  2.92101550e+01  9.28666300e+00  3.16392700e+00
  7.86827240e+00  1.88128850e+00  5.44249300e-01  7.86827240e+00  1.88128850e+00
  5.44249300e-01  1.68714400e-01  1.68714400e-01  8.00000000e-01  4.38000000e-02
  4.38000000e-02  3.04752490e+03  4.57369510e+02  1.03948690e+02  2.92101550e+01
  9.28666300e+00  3.16392700e+00  7.86827240e+00  1.88128850e+00  5.44249300e-01
  7.86827240e+00  1.88128850e+00  5.44249300e-01  1.68714400e-01  1.68714400e-01
  8.00000000e-01  4.38000000e-02  4.38000000e-02  1.87311370e+01  2.82539370e+00
  6.40121700e-01  1.61277800e-01  1.87311370e+01  2.82539370e+00  6.40121700e-01
  1.61277800e-01  1.87311370e+01  2.82539370e+00  6.40121700e-01  1.61277800e-01
  1.87311370e+01  2.82539370e+00  6.40121700e-01  1.61277800e-01  1.87311370e+01
  2.82539370e+00  6.40121700e-01  1.61277800e-01  3.04752490e+03  4.57369510e+02
  1.03948690e+02  2.92101550e+01  9.28666300e+00  3.16392700e+00  7.86827240e+00
  1.88128850e+00  5.44249300e-01  7.86827240e+00  1.88128850e+00  5.44249300e-01
  1.68714400e-01  1.68714400e-01  8.00000000e-01  4.38000000e-02  4.38000000e-02
  3.04752490e+03  4.57369510e+02  1.03948690e+02  2.92101550e+01  9.28666300e+00
  3.16392700e+00  7.86827240e+00  1.88128850e+00  5.44249300e-01  7.86827240e+00
  1.88128850e+00  5.44249300e-01  1.68714400e-01  1.68714400e-01  8.00000000e-01
  4.38000000e-02  4.38000000e-02  1.87311370e+01  2.82539370e+00  6.40121700e-01
  1.61277800e-01  1.87311370e+01  2.82539370e+00  6.40121700e-01  1.61277800e-01
  4.17351100e+03  6.27457900e+02  1.42902100e+02  4.02343300e+01  1.28202100e+01
  4.39043700e+00  1.16263580e+01  2.71628000e+00  7.72218000e-01  1.16263580e+01
  2.71628000e+00  7.72218000e-01  2.12031300e-01  2.12031300e-01  8.00000000e-01
  6.39000000e-02  6.39000000e-02  1.87311370e+01  2.82539370e+00  6.40121700e-01
  1.61277800e-01  1.87311370e+01  2.82539370e+00  6.40121700e-01  1.61277800e-01
  1.87311370e+01  2.82539370e+00  6.40121700e-01  1.61277800e-01  1.87311370e+01
  2.82539370e+00  6.40121700e-01  1.61277800e-01  1.87311370e+01  2.82539370e+00
  6.40121700e-01  1.61277800e-01
Contraction coefficients                   R   N=         252
  1.83470016e-03  1.40373012e-02  6.88426061e-02  2.32184421e-01  4.67941342e-01
  3.62312032e-01 -1.19332409e-01 -1.60854212e-01  1.14345648e+00  6.89990956e-02
  3.16423980e-01  7.44308252e-01  1.00000000e+00  1.00000000e+00  1.00000000e+00
  1.00000000e+00  1.00000000e+00  1.83470016e-03  1.40373012e-02  6.88426061e-02
  2.32184421e-01  4.67941342e-01  3.62312032e-01 -1.19332409e-01 -1.60854212e-01
  1.14345648e+00  6.89990956e-02  3.16423980e-01  7.44308252e-01  1.00000000e+00
  1.00000000e+00  1.00000000e+00  1.00000000e+00  1.00000000e+00  1.83470016e-03
  1.40373012e-02  6.88426061e-02  2.32184421e-01  4.67941342e-01  3.62312032e-01
 -1.19332409e-01 -1.60854212e-01  1.14345648e+00  6.89990956e-02  3.16423980e-01
  7.44308252e-01  1.00000000e+00  1.00000000e+00  1.00000000e+00  1.00000000e+00
  1.00000000e+00  1.83470016e-03  1.40373012e-02  6.88426061e-02  2.32184421e-01
  4.67941342e-01  3.62312032e-01 -1.19332409e-01 -1.60854212e-01  1.14345648e+00
  6.89990956e-02  3.16423980e-01  7.44308252e-01  1.00000000e+00  1.00000000e+00
  1.00000000e+00  1.00000000e+00  1.00000000e+00  1.83470016e-03  1.40373012e-02
  6.88426061e-02  2.32184421e-01  4.67941342e-01  3.62312032e-01 -1.19332409e-01
 -1.60854212e-01  1.14345648e+00  6.89990956e-02  3.16423980e-01  7.44308252e-01
  1.00000000e+00  1.00000000e+00  1.00000000e+00  1.00000000e+00  1.00000000e+00
  1.83470016e-03  1.40373012e-02  6.88426061e-02  2.32184421e-01  4.67941342e-01
  3.62312032e-01 -1.19332409e-01 -1.60854212e-01  1.14345648e+00  6.89990956e-02
  3.16423980e-01  7.44308252e-01  1.00000000e+00  1.00000000e+00  1.00000000e+00
  1.00000000e+00  1.00000000e+00  1.83479944e-03  1.39949958e-02  6.85869792e-02
  2.32240930e-01  4.69069858e-01  3.60454891e-01 -1.14961023e-01 -1.69118034e-01
  1.14585223e+00  6.75800232e-02  3.23907111e-01  7.40895255e-01  1.00000000e+00
  1.00000000e+00  1.00000000e+00  1.00000000e+00  1.00000000e+00  1.83470016e-03
  1.40373012e-02  6.88426061e-02  2.32184421e-01  4.67941342e-01  3.62312032e-01
 -1.19332409e-01 -1.60854212e-01  1.14345648e+00  6.89990956e-02  3.16423980e-01
  7.44308252e-01  1.00000000e+00  1.00000000e+00  1.00000000e+00  1.00000000e+00
  1.00000000e+00  1.83470016e-03  1.40373012e-02  6.88426061e-02  2.32184421e-01
  4.67941342e-01  3.62312032e-01 -1.19332409e-01 -1.60854212e-01  1.14345648e+00
  6.89990956e-02  3.16423980e-01  7.44308252e-01  1.00000000e+00  1.00000000e+00
  1.00000000e+00  1.00000000e+00  1.00000000e+00  3.34945995e-02  2.34726947e-01
  8.13757318e-01  1.00000000e+00  3.34945995e-02  2.34726947e-01  8.13757318e-01
  1.00000000e+00  3.34945995e-02  2.34726947e-01  8.13757318e-01  1.00000000e+00
  3.34945995e-02  2.34726947e-01  8.13757318e-01  1.00000000e+00  3.34945995e-02
  2.34726947e-01  8.13757318e-01  1.00000000e+00  1.83470016e-03  1.40373012e-02
  6.88426061e-02  2.32184421e-01  4.67941342e-01  3.62312032e-01 -1.19332409e-01
 -1.60854212e-01  1.14345648e+00  6.89990956e-02  3.16423980e-01  7.44308252e-01
  1.00000000e+00  1.00000000e+00  1.00000000e+00  1.00000000e+00  1.00000000e+00
  1.83470016e-03  1.40373012e-02  6.88426061e-02  2.32184421e-01  4.67941342e-01
  3.62312032e-01 -1.19332409e-01 -1.60854212e-01  1.14345648e+00  6.89990956e-02
  3.16423980e-01  7.44308252e-01  1.00000000e+00  1.00000000e+00  1.00000000e+00
  1.00000000e+00  1.00000000e+00  3.34945995e-02  2.34726947e-01  8.13757318e-01
  1.00000000e+00  3.34945995e-02  2.34726947e-01  8.13757318e-01  1.00000000e+00
  1.83479944e-03  1.39949958e-02  6.85869792e-02  2.32240930e-01  4.69069858e-01
  3.60454891e-01 -1.14961023e-01 -1.69118034e-01  1.14585223e+00  6.75800232e-02
  3.23907111e-01  7.40895255e-01  1.00000000e+00  1.00000000e+00  1.00000000e+00
  1.00000000e+00  1.00000000e+00  3.34945995e-02  2.34726947e-01  8.13757318e-01
  1.00000000e+00  3.34945995e-02  2.34726947e-01  8.13757318e-01  1.00000000e+00
  3.34945995e-02  2.34726947e-01  8.13757318e-01  1.00000000e+00  3.34945995e-02
  2.34726947e-01  8.13757318e-01  1.00000000e+00  3.34945995e-02  2.34726947e-01
  8.13757318e-01  1.00000000e+00
Coordinates of each shell                  R   N=         360
 -1.20933863e+00 -1.54775489e+00 -5.32161529e-01 -1.20933863e+00 -1.54775489e+00
 -5.32161529e-01 -1.20933863e+00 -1.54775489e+00 -5.32161529e-01 -1.20933863e+00
 -1.54775489e+00 -5.32161529e-01 -1.20933863e+00 -1.54775489e+00 -5.32161529e-01
 -1.20933863e+00 -1.54775489e+00 -5.32161529e-01 -1.20933863e+00 -1.54775489e+00
 -5.32161529e-01 -1.20933863e+00 -1.54775489e+00 -5.32161529e-01  2.38600014e+00
  8.62186649e-01  1.89056022e+00  2.38600014e+00  8.62186649e-01  1.89056022e+00
  2.38600014e+00  8.62186649e-01  1.89056022e+00  2.38600014e+00  8.62186649e-01
  1.89056022e+00  2.38600014e+00  8.62186649e-01  1.89056022e+00  2.38600014e+00
  8.62186649e-01  1.89056022e+00  2.38600014e+00  8.62186649e-01  1.89056022e+00
  2.38600014e+00  8.62186649e-01  1.89056022e+00  8.88860255e-01  1.69534768e-01
 -1.96772347e-01  8.88860255e-01  1.69534768e-01 -1.96772347e-01  8.88860255e-01
  1.69534768e-01 -1.96772347e-01  8.88860255e-01  1.69534768e-01 -1.96772347e-01
  8.88860255e-01  1.69534768e-01 -1.96772347e-01  8.88860255e-01  1.69534768e-01
 -1.96772347e-01  8.88860255e-01  1.69534768e-01 -1.96772347e-01  8.88860255e-01
  1.69534768e-01 -1.96772347e-01  4.32890734e+00  2.60031696e+00  1.55262289e+00
  4.32890734e+00  2.60031696e+00  1.55262289e+00  4.32890734e+00  2.60031696e+00
  1.55262289e+00  4.32890734e+00  2.60031696e+00  1.55262289e+00  4.32890734e+00
  2.60031696e+00  1.55262289e+00  4.32890734e+00  2.60031696e+00  1.55262289e+00
  4.32890734e+00  2.60031696e+00  1.55262289e+00  4.32890734e+00  2.60031696e+00
  1.55262289e+00  4.81586313e+00  3.67233951e+00 -8.42224448e-01  4.81586313e+00
  3.67233951e+00 -8.42224448e-01  4.81586313e+00  3.67233951e+00 -8.42224448e-01
  4.81586313e+00  3.67233951e+00 -8.42224448e-01  4.81586313e+00  3.67233951e+00
 -8.42224448e-01  4.81586313e+00  3.67233951e+00 -8.42224448e-01  4.81586313e+00
  3.67233951e+00 -8.42224448e-01  4.81586313e+00  3.67233951e+00 -8.42224448e-01
 -1.84223839e+00 -1.42898823e+00 -3.04829128e+00 -1.84223839e+00 -1.42898823e+00
 -3.04829128e+00 -1.84223839e+00 -1.42898823e+00 -3.04829128e+00 -1.84223839e+00
 -1.42898823e+00 -3.04829128e+00 -1.84223839e+00 -1.42898823e+00 -3.04829128e+00
 -1.84223839e+00 -1.42898823e+00 -3.04829128e+00 -1.84223839e+00 -1.42898823e+00
 -3.04829128e+00 -1.84223839e+00 -1.42898823e+00 -3.04829128e+00 -2.79505569e-01
  2.62793667e-01 -4.29484891e+00 -2.79505569e-01  2.62793667e-01 -4.29484891e+00
 -2.79505569e-01  2.62793667e-01 -4.29484891e+00 -2.79505569e-01  2.62793667e-01
 -4.29484891e+00 -2.79505569e-01  2.62793667e-01 -4.29484891e+00 -2.79505569e-01
  2.62793667e-01 -4.29484891e+00 -2.79505569e-01  2.62793667e-01 -4.29484891e+00
 -2.79505569e-01  2.62793667e-01 -4.29484891e+00  1.42248647e+00  1.26885136e+00
 -2.59292396e+00  1.42248647e+00  1.26885136e+00 -2.59292396e+00  1.42248647e+00
  1.26885136e+00 -2.59292396e+00  1.42248647e+00  1.26885136e+00 -2.59292396e+00
  1.42248647e+00  1.26885136e+00 -2.59292396e+00  1.42248647e+00  1.26885136e+00
 -2.59292396e+00  1.42248647e+00  1.26885136e+00 -2.59292396e+00  1.42248647e+00
  1.26885136e+00 -2.59292396e+00  3.37389815e+00  3.02103519e+00 -2.94399445e+00
  3.37389815e+00  3.02103519e+00 -2.94399445e+00  3.37389815e+00  3.02103519e+00
 -2.94399445e+00  3.37389815e+00  3.02103519e+00 -2.94399445e+00  3.37389815e+00
  3.02103519e+00 -2.94399445e+00  3.37389815e+00  3.02103519e+00 -2.94399445e+00
  3.37389815e+00  3.02103519e+00 -2.94399445e+00  3.37389815e+00  3.02103519e+00
 -2.94399445e+00  6.34531848e+00  5.02737589e+00 -1.05041069e+00  6.34531848e+00
  5.02737589e+00 -1.05041069e+00  3.75613955e+00  3.84408836e+00 -4.78809417e+00
  3.75613955e+00  3.84408836e+00 -4.78809417e+00  2.03472133e+00  4.70432306e-02
  3.74385926e+00  2.03472133e+00  4.70432306e-02  3.74385926e+00 -3.56061000e-01
  6.65994723e-01 -6.15591936e+00 -3.56061000e-01  6.65994723e-01 -6.15591936e+00
 -3.29878107e+00 -2.43597083e+00 -4.07239455e+00 -3.29878107e+00 -2.43597083e+00
 -4.07239455e+00 -2.46464191e+00 -3.11366545e+00  1.47668431e+00 -2.46464191e+00
 -3.11366545e+00  1.47668431e+00 -2.46464191e+00 -3.11366545e+00  1.47668431e+00
 -2.46464191e+00 -3.11366545e+00  1.47668431e+00 -2.46464191e+00 -3.11366545e+00
  1.47668431e+00 -2.46464191e+00 -3.11366545e+00  1.47668431e+00 -2.46464191e+00
 -3.11366545e+00  1.47668431e+00 -2.46464191e+00 -3.11366545e+00  1.47668431e+00
 -4.21424261e+00 -1.57976073e+00  3.22287179e+00 -4.21424261e+00 -1.57976073e+00
  3.22287179e+00 -4.21424261e+00 -1.57976073e+00  3.22287179e+00 -4.21424261e+00
 -1.57976073e+00  3.22287179e+00 -4.21424261e+00 -1.57976073e+00  3.22287179e+00
 -4.21424261e+00 -1.57976073e+00  3.22287179e+00 -4.21424261e+00 -1.57976073e+00
  3.22287179e+00 -4.21424261e+00 -1.57976073e+00  3.22287179e+00 -1.04429204e+00
 -4.05402542e+00  2.66140121e+00 -1.04429204e+00 -4.05402542e+00  2.66140121e+00
 -3.57170923e+00 -4.62726270e+00  5.81755003e-01 -3.57170923e+00 -4.62726270e+00
  5.81755003e-01 -5.25960302e+00 -3.20758479e+00  5.21337825e+00 -5.25960302e+00
 -3.20758479e+00  5.21337825e+00 -5.25960302e+00 -3.20758479e+00  5.21337825e+00
 -5.25960302e+00 -3.20758479e+00  5.21337825e+00 -5.25960302e+00 -3.20758479e+00
  5.21337825e+00 -5.25960302e+00 -3.20758479e+00  5.21337825e+00 -5.25960302e+00
 -3.20758479e+00  5.21337825e+00 -5.25960302e+00 -3.20758479e+00  5.21337825e+00
  5.49515659e+00  3.14511725e+00  3.15333274e+00  5.49515659e+00  3.14511725e+00
  3.15333274e+00 -6.44903401e+00 -4.52391210e+00  4.46361543e+00 -6.44903401e+00
 -4.52391210e+00  4.46361543e+00 -6.29028365e+00 -2.17823008e+00  6.47028886e+00
 -6.29028365e+00 -2.17823008e+00  6.47028886e+00 -5.66538082e+00 -6.35839295e-01
  2.05858100e+00 -5.66538082e+00 -6.35839295e-01  2.05858100e+00 -3.12268770e+00
 -8.19482543e-02  4.14754988e+00 -3.12268770e+00 -8.19482543e-02  4.14754988e+00
Total Energy                               R     -4.978107287221470e+02
Alpha Orbital Energies                     R   N=         252
 -1.43844853e+01 -1.43217632e+01 -1.02225006e+01 -1.02216892e+01 -1.02092794e+01
 -1.01933539e+01 -1.01882648e+01 -1.01880995e+01 -1.01879004e+01 -1.01861100e+01
 -1.01852055e+01 -1.01832672e+01 -9.81604202e-01 -8.83010188e-01 -8.39962647e-01
 -7.99900088e-01 -7.40546481e-01 -7.34626022e-01 -7.08768730e-01 -6.26840059e-01
 -6.17697149e-01 -5.94011370e-01 -5.58499561e-01 -5.39002833e-01 -4.90727320e-01
 -4.87699947e-01 -4.74941388e-01 -4.56704052e-01 -4.44720930e-01 -4.31007927e-01
 -4.24559061e-01 -4.19032447e-01 -3.93958978e-01 -3.78906920e-01 -3.71609687e-01
 -3.61934095e-01 -3.44641922e-01 -3.34979329e-01 -3.30318631e-01 -2.74424794e-01
 -2.40653797e-01 -2.25218397e-01 -2.05132960e-01 -1.96982103e-02 -4.06388313e-03
  1.83143683e-03  1.55434593e-02  1.68577753e-02  2.30180549e-02  3.04682054e-02
  3.64383903e-02  4.01371511e-02  4.80192518e-02  5.51342287e-02  5.85491806e-02
  6.59923291e-02  7.25404397e-02  8.26819751e-02  8.46221507e-02  9.01094762e-02
  9.58622362e-02  1.04882823e-01  1.07852604e-01  1.22012538e-01  1.25227053e-01
  1.31836024e-01  1.37799452e-01  1.39922652e-01  1.48875350e-01  1.52328514e-01
  1.56225183e-01  1.63397353e-01  1.66022999e-01  1.71581055e-01  1.77873295e-01
  1.79778402e-01  1.88334258e-01  1.90922711e-01  1.94764915e-01  1.99977848e-01
  2.01084325e-01  2.05673964e-01  2.07511218e-01  2.10760168e-01  2.15240371e-01
  2.23123781e-01  2.24652724e-01  2.33161773e-01  2.35009718e-01  2.42745042e-01
  2.47860752e-01  2.50691468e-01  2.58224367e-01  2.62020150e-01  2.69215138e-01
  2.74366065e-01  2.77719852e-01  2.86994748e-01  2.92338239e-01  3.00590908e-01
  3.02289472e-01  3.08710403e-01  3.11078049e-01  3.17877412e-01  3.28523312e-01
  3.39312407e-01  3.40152999e-01  3.50271284e-01  3.52577196e-01  3.68710725e-01
  3.76503760e-01  3.84310360e-01  3.98300516e-01  4.15168482e-01  4.46353571e-01
  4.54343473e-01  4.76249318e-01  5.23602690e-01  5.84432806e-01  6.20736685e-01
  6.61646919e-01  6.67603947e-01  6.79826222e-01  6.87372194e-01  6.98504791e-01
  7.12280203e-01  7.27872945e-01  7.32571678e-01  7.38056136e-01  7.46873240e-01
  7.47084740e-01  7.56895304e-01  7.62845943e-01  7.81040459e-01  7.89020710e-01
  8.03105241e-01  8.22853416e-01  8.40035273e-01  8.54974293e-01  8.85597024e-01
  8.88659442e-01  8.95867200e-01  9.09251138e-01  9.18826233e-01  9.39513310e-01
  9.48181477e-01  9.52221455e-01  9.61366212e-01  9.73794005e-01  9.84089975e-01
  9.97475586e-01  1.00648603e+00  1.02537500e+00  1.04301685e+00  1.06120504e+00
  1.06654090e+00  1.08684839e+00  1.10186078e+00  1.11953877e+00  1.13061155e+00
  1.13783150e+00  1.15144213e+00  1.15791692e+00  1.17459314e+00  1.21168037e+00
  1.21538933e+00  1.24895098e+00  1.25032179e+00  1.26227986e+00  1.28025241e+00
  1.32269338e+00  1.33506014e+00  1.36058833e+00  1.36954536e+00  1.39326738e+00
  1.41980326e+00  1.42720717e+00  1.43957185e+00  1.46186515e+00  1.47544313e+00
  1.50006557e+00  1.50585809e+00  1.51506581e+00  1.53111014e+00  1.58950061e+00
  1.62951032e+00  1.67474175e+00  1.68160218e+00  1.75928319e+00  1.80206473e+00
  1.84201804e+00  1.84458601e+00  1.87098411e+00  1.89637002e+00  1.91800316e+00
  1.92697286e+00  1.93706781e+00  1.96423617e+00  1.99175561e+00  2.00344754e+00
  2.01961801e+00  2.03554082e+00  2.06364585e+00  2.10034387e+00  2.11292695e+00
  2.11731873e+00  2.15440388e+00  2.17252671e+00  2.18865079e+00  2.21517398e+00
  2.23613914e+00  2.25423667e+00  2.25886714e+00  2.28889547e+00  2.31688700e+00
  2.34322735e+00  2.35955800e+00  2.39892029e+00  2.41175202e+00  2.44023119e+00
  2.47865653e+00  2.51564922e+00  2.55496974e+00  2.56546233e+00  2.61292028e+00
  2.65519820e+00  2.66594343e+00  2.68049483e+00  2.68577744e+00  2.72118587e+00
  2.75554288e+00  2.82192139e+00  2.84368789e+00  2.87017032e+00  2.90402212e+00
  2.98049323e+00  3.00815615e+00  3.16005405e+00  3.25284795e+00  3.43957846e+00
  3.95890505e+00  4.18651525e+00  4.25741558e+00  4.27245981e+00  4.29810776e+00
  4.35100054e+00  4.39161586e+00  4.42157597e+00  4.48967957e+00  4.55444242e+00
  4.59863310e+00  4.81087666e+00
Alpha MO coefficients                      R   N=       63504
 -4.73956707e-07  6.12660325e-05  1.79201757e-05  3.55106166e-06  4.65055816e-05
 -3.49971425e-04  3.96175891e-05 -2.05900248e-04  9.33085441e-04 -1.21674847e-05
 -2.11969483e-05 -9.84160749e-05 -2.02301935e-06  8.61496298e-06  3.46196626e-05
 -2.64887305e-04  1.68708342e-03  2.76394430e-03 -3.96199420e-03  2.04308257e-06
  1.18722280e-05 -6.65438240e-06 -1.04974442e-05  1.99861244e-05 -7.99204500e-04
  1.02193727e-04 -5.45129061e-06  3.21356339e-04  8.32898227e-06  1.95107594e-06
 -3.23902986e-06  7.38777554e-06  7.64071196e-06  7.00385369e-06  1.49534612e-03
  4.87530564e-05  1.67662534e-04 -3.71547460e-04 -1.53608817e-05 -1.90275497e-05
 -2.14170905e-05 -3.18930089e-05  5.70693084e-05  5.51792779e-04  7.30800644e-04
  5.27147226e-04  3.14190965e-04 -2.48417724e-05 -2.48406873e-05 -1.10751230e-04
  2.12146997e-05 -2.25124107e-05  2.50763533e-06 -7.09309119e-03 -1.10801117e-03
 -1.41746799e-03  1.64497510e-03 -7.38140701e-06 -3.30530812e-05  9.14171980e-06
  6.45027192e-06  5.06632355e-06  4.69188537e-04 -1.76052537e-04 -6.09791937e-05
 -3.17033453e-04 -1.11169048e-05 -1.14179525e-05 -3.24790169e-06  2.73273743e-06
  5.24737546e-07 -3.04835718e-06 -5.73865714e-04  7.21534282e-05  2.91958304e-05
  8.67325321e-05  5.53298749e-06  3.50644505e-05  2.02481314e-05  1.22766810e-05
  1.80261019e-05 -1.09848197e-03  3.94799870e-04  3.02437602e-04  1.14785767e-04
 -3.89413741e-06  9.31499521e-07  3.75591647e-06 -3.79222834e-06 -7.48595493e-06
 -6.46044694e-06 -1.29265676e-04  1.80576633e-05 -3.60972639e-06  3.71885976e-05
 -6.59161234e-06  1.38806159e-05  2.08532742e-04  2.29512426e-04 -1.64750581e-04
  1.55719647e-03  7.86236197e-04  4.62807016e-04  7.49786094e-04  2.13304839e-05
  2.04545472e-05  2.60048002e-05  1.24571480e-04 -4.66620663e-05 -7.75274580e-05
 -1.13163028e-03  1.21473011e-04  5.01204620e-05  3.94315877e-05  9.92617461e-01
  3.49782275e-02  1.91026330e-05 -6.58903894e-06  1.50649474e-05  2.84226367e-03
 -3.88762214e-04  5.33550564e-05 -1.39377508e-03 -8.50486054e-03 -8.47213939e-03
 -8.46474851e-03 -9.31348417e-05 -3.37498259e-05 -6.86394270e-06 -2.92796349e-03
  1.92123944e-05  4.37371922e-04 -1.66740792e-03  1.05278335e-05  8.84493565e-05
 -1.90311772e-04 -1.04914247e-04 -2.16996125e-04  3.70498133e-04 -1.77734737e-03
 -1.28949155e-03 -8.65255318e-04  5.23114349e-05 -1.22739122e-05  7.87111233e-05
  8.90601838e-05  1.10343321e-04  5.07444767e-05  8.50615918e-03  2.16327354e-03
  1.46962453e-03  1.24510747e-03 -1.46188369e-05 -5.20651036e-05 -2.51386557e-05
 -1.34627154e-05 -3.07961024e-05  1.88193883e-03 -2.16509460e-04 -4.81721510e-04
  1.12271221e-03 -3.77405301e-05 -2.66475417e-05  7.36547034e-07 -9.06653105e-06
 -1.80205448e-05 -2.32202957e-05 -4.85637089e-03  7.79074654e-04  7.10069539e-04
 -8.01655582e-05 -3.63101173e-06 -5.28300868e-05  3.96552817e-05  4.29874807e-04
  9.28911974e-06 -2.82064982e-05  2.44294459e-04 -1.20953647e-03  1.91181991e-05
  4.65889825e-04  4.74675534e-06  2.18811337e-05  3.67717755e-06 -1.20302023e-06
  1.50351397e-05 -4.60335132e-04 -2.07942663e-04 -1.62023265e-04 -1.84463238e-05
 -2.52959201e-06  4.94868809e-06  1.60962250e-05  1.53564382e-06 -5.75279685e-07