Generated by Psi4
     FORCE                           RHF                       TESTBAS
Number of atoms                            I               39
Charge                                     I                0
Multiplicity                               I                1
Number of electrons                        I              134
Number of alpha electrons                  I               67
Number of beta electrons                   I               67
Number of basis functions                  I              384
Number of independent functions            I              384
Atomic numbers                             I   N=          39
           6           6           6           6           6           6
           6           6           1           1           1           1
           1           6           6           1           8           8
           6           7           1           6           6           1
           1           6           1           1           1           1
           1           1           1           6           1           1
           1           1           1
Nuclear charges                            R   N=          39
  6.00000000e+00  6.00000000e+00  6.00000000e+00  6.00000000e+00  6.00000000e+00
  6.00000000e+00  6.00000000e+00  6.00000000e+00  1.00000000e+00  1.00000000e+00
  1.00000000e+00  1.00000000e+00  1.00000000e+00  6.00000000e+00  6.00000000e+00
  1.00000000e+00  8.00000000e+00  8.00000000e+00  6.00000000e+00  7.00000000e+00
  1.00000000e+00  6.00000000e+00  6.00000000e+00  1.00000000e+00  1.00000000e+00
  6.00000000e+00  1.00000000e+00  1.00000000e+00  1.00000000e+00  1.00000000e+00
  1.00000000e+00  1.00000000e+00  1.00000000e+00  6.00000000e+00  1.00000000e+00
  1.00000000e+00  1.00000000e+00  1.00000000e+00  1.00000000e+00
Current cartesian coordinates              R   N=         117
 -1.62853518e-01  1.52440080e+00  8.21560058e-02  3.73432048e+00 -1.17926645e+00
 -9.08738001e-01  2.52575206e+00  1.18296178e+00 -9.00428242e-01  6.19341143e+00
 -1.43238251e+00 -1.83235359e+00  7.49659130e+00  6.72026273e-01 -2.75766543e+00
 -2.14031402e+00 -1.95476951e-01 -1.21939303e+00  3.85543896e+00  3.27966127e+00
 -1.82634882e+00  6.31878379e+00  3.03347114e+00 -2.74811513e+00  7.09547207e+00
 -3.27859551e+00 -1.82362206e+00  9.41132512e+00  4.71455193e-01 -3.47416083e+00
  2.75801201e+00 -2.82531991e+00 -1.68964188e-01  7.31139897e+00  4.68727357e+00
 -3.45565515e+00  2.95416315e+00  5.12727737e+00 -1.82170328e+00 -2.28375802e+00
  2.42704584e-01 -4.09596975e+00 -3.02216139e-01  1.25440139e+00  2.96072037e+00
 -7.11382793e-01  3.49147848e+00 -2.67643417e-01 -6.89834088e-01  3.00780426e+00
  4.39115771e+00  1.08067001e-01 -1.13618537e+00  3.73564976e+00 -3.83503093e-02
 -1.58263199e+00  6.43273256e+00 -4.58615300e+00  1.68650365e-01  5.24732429e-02
 -1.60676970e+00 -2.17365579e+00 -8.81573083e-01 -6.62351609e+00 -1.34607668e+00
 -1.06764703e+00 -6.92234421e+00 -9.71624580e-01 -3.93404624e+00 -8.38205322e+00
 -8.91776999e-01 -7.03873476e-02 -6.20450008e+00 -3.34225752e+00 -6.67537632e-01
 -4.38419071e+00 -1.37936328e+00 -5.28431927e+00 -7.60329169e+00  9.59460718e-01
 -4.30113965e+00 -8.36439045e+00 -2.26794129e+00 -4.67728593e+00 -4.55657132e+00
 -9.54110356e-01 -7.30708300e+00 -3.85228112e+00 -3.38600227e+00 -5.14845262e+00
 -4.59934076e-01 -1.80285112e-01 -4.98471912e+00 -2.67405810e+00  2.25687875e+00
 -4.44899749e+00 -5.06905279e+00  2.03651052e+00 -4.43759230e-05  4.40838848e-01
 -4.37448264e+00  6.87917490e+00 -1.91272832e+00 -1.00026885e+00  7.08519124e+00
  1.36695116e+00 -3.91604998e-01  7.37417127e+00 -9.73990007e-01 -5.53525832e+00
  5.91161541e+00  3.37261385e-01 -4.78195984e+00  8.90799315e+00  2.31810239e+00
 -4.92688464e+00  6.20323947e+00
Integer atomic weights                     I   N=          39
          12          12          12          12          12          12
          12          12           1           1           1           1
           1          12          12           1          15          15
          12          14           1          12          12           1
           1          12           1           1           1           1
           1           1           1          12           1           1
           1           1           1
Real atomic weights                        R   N=          39
  1.20000000e+01  1.20000000e+01  1.20000000e+01  1.20000000e+01  1.20000000e+01
  1.20000000e+01  1.20000000e+01  1.20000000e+01  1.00782503e+00  1.00782503e+00
  1.00782503e+00  1.00782503e+00  1.00782503e+00  1.20000000e+01  1.20000000e+01
  1.00782503e+00  1.59949146e+01  1.59949146e+01  1.20000000e+01  1.40030740e+01
  1.00782503e+00  1.20000000e+01  1.20000000e+01  1.00782503e+00  1.00782503e+00
  1.20000000e+01  1.00782503e+00  1.00782503e+00  1.00782503e+00  1.00782503e+00
  1.00782503e+00  1.00782503e+00  1.00782503e+00  1.20000000e+01  1.00782503e+00
  1.00782503e+00  1.00782503e+00  1.00782503e+00  1.00782503e+00
Number of primitive shells                 I              390
Number of contracted shells                I              186
Pure/Cartesian d shells                    I                1
Pure/Cartesian f shells                    I                1
Highest angular momentum                   I                2
Largest degree of contraction              I                6
Shell types                                I   N=         186
           0           0           1           0           1           2
           0           1           0           0           1           0
           1           2           0           1           0           0
           1           0           1           2           0           1
           0           0           1           0           1           2
           0           1           0           0           1           0
           1           2           0           1           0           0
           1           0           1           2           0           1
           0           0           1           0           1           2
           0           1           0           0           1           0
           1           2           0           1           0           0
           0           0           0           0           0           0
           0           0           0           0           1           0
           1           2           0           1           0           0
           1           0           1           2           0           1
           0           0           0           0           1           0
           1           2           0           1           0           0
           1           0           1           2           0           1
           0           0           1           0           1           2
           0           1           0           0           1           0
           1           2           0           1           0           0
           0           0           1           0           1           2
           0           1           0           0           1           0
           1           2           0           1           0           0
           0           0           0           0           1           0
           1           2           0           1           0           0
           0           0           0           0           0           0
           0           0           0           0           0           0
           0           0           1           0           1           2
           0           1           0           0           0           0
           0           0           0           0           0           0
Number of primitives per shell             I   N=         186
           6           3           3           1           1           1
           1           1           6           3           3           1
           1           1           1           1           6           3
           3           1           1           1           1           1
           6           3           3           1           1           1
           1           1           6           3           3           1
           1           1           1           1           6           3
           3           1           1           1           1           1
           6           3           3           1           1           1
           1           1           6           3           3           1
           1           1           1           1           3           1
           3           1           3           1           3           1
           3           1           6           3           3           1
           1           1           1           1           6           3
           3           1           1           1           1           1
           3           1           6           3           3           1
           1           1           1           1           6           3
           3           1           1           1           1           1
           6           3           3           1           1           1
           1           1           6           3           3           1
           1           1           1           1           3           1
           6           3           3           1           1           1
           1           1           6           3           3           1
           1           1           1           1           3           1
           3           1           6           3           3           1
           1           1           1           1           3           1
           3           1           3           1           3           1
           3           1           3           1           3           1
           6           3           3           1           1           1
           1           1           3           1           3           1
           3           1           3           1           3           1
Shell to atom map                          I   N=         186
           1           1           1           1           1           1
           1           1           2           2           2           2
           2           2           2           2           3           3
           3           3           3           3           3           3
           4           4           4           4           4           4
           4           4           5           5           5           5
           5           5           5           5           6           6
           6           6           6           6           6           6
           7           7           7           7           7           7
           7           7           8           8           8           8
           8           8           8           8           9           9
          10          10          11          11          12          12
          13          13          14          14          14          14
          14          14          14          14          15          15
          15          15          15          15          15          15
          16          16          17          17          17          17
          17          17          17          17          18          18
          18          18          18          18          18          18
          19          19          19          19          19          19
          19          19          20          20          20          20
          20          20          20          20          21          21
          22          22          22          22          22          22
          22          22          23          23          23          23
          23          23          23          23          24          24
          25          25          26          26          26          26
          26          26          26          26          27          27
          28          28          29          29          30          30
          31          31          32          32          33          33
          34          34          34          34          34          34
          34          34          35          35          36          36
          37          37          38          38          39          39
Primitive exponents                        R   N=         390
  3.04752490e+03  4.57369510e+02  1.03948690e+02  2.92101550e+01  9.28666300e+00
  3.16392700e+00  7.86827240e+00  1.88128850e+00  5.44249300e-01  7.86827240e+00
  1.88128850e+00  5.44249300e-01  1.68714400e-01  1.68714400e-01  8.00000000e-01
  4.38000000e-02  4.38000000e-02  3.04752490e+03  4.57369510e+02  1.03948690e+02
  2.92101550e+01  9.28666300e+00  3.16392700e+00  7.86827240e+00  1.88128850e+00
  5.44249300e-01  7.86827240e+00  1.88128850e+00  5.44249300e-01  1.68714400e-01
  1.68714400e-01  8.00000000e-01  4.38000000e-02  4.38000000e-02  3.04752490e+03
  4.57369510e+02  1.03948690e+02  2.92101550e+01  9.28666300e+00  3.16392700e+00
  7.86827240e+00  1.88128850e+00  5.44249300e-01  7.86827240e+00  1.88128850e+00
  5.44249300e-01  1.68714400e-01  1.68714400e-01  8.00000000e-01  4.38000000e-02
  4.38000000e-02  3.04752490e+03  4.57369510e+02  1.03948690e+02  2.92101550e+01
  9.28666300e+00  3.16392700e+00  7.86827240e+00  1.88128850e+00  5.44249300e-01
  7.86827240e+00  1.88128850e+00  5.44249300e-01  1.68714400e-01  1.68714400e-01
  8.00000000e-01  4.38000000e-02  4.38000000e-02  3.04752490e+03  4.57369510e+02
  1.03948690e+02  2.92101550e+01  9.28666300e+00  3.16392700e+00  7.86827240e+00
  1.88128850e+00  5.44249300e-01  7.86827240e+00  1.88128850e+00  5.44249300e-01
  1.68714400e-01  1.68714400e-01  8.00000000e-01  4.38000000e-02  4.38000000e-02
  3.04752490e+03  4.57369510e+02  1.03948690e+02  2.92101550e+01  9.28666300e+00
  3.16392700e+00  7.86827240e+00  1.88128850e+00  5.44249300e-01  7.86827240e+00
  1.88128850e+00  5.44249300e-01  1.68714400e-01  1.68714400e-01  8.00000000e-01
  4.38000000e-02  4.38000000e-02  3.04752490e+03  4.57369510e+02  1.03948690e+02
  2.92101550e+01  9.28666300e+00  3.16392700e+00  7.86827240e+00  1.88128850e+00
  5.44249300e-01  7.86827240e+00  1.88128850e+00  5.44249300e-01  1.68714400e-01
  1.68714400e-01  8.00000000e-01  4.38000000e-02  4.38000000e-02  3.04752490e+03
  4.57369510e+02  1.03948690e+02  2.92101550e+01  9.28666300e+00  3.16392700e+00
  7.86827240e+00  1.88128850e+00  5.44249300e-01  7.86827240e+00  1.88128850e+00
  5.44249300e-01  1.68714400e-01  1.68714400e-01  8.00000000e-01  4.38000000e-02
  4.38000000e-02  1.87311370e+01  2.82539370e+00  6.40121700e-01  1.61277800e-01
  1.87311370e+01  2.82539370e+00  6.40121700e-01  1.61277800e-01  1.87311370e+01
  2.82539370e+00  6.40121700e-01  1.61277800e-01  1.87311370e+01  2.82539370e+00
  6.40121700e-01  1.61277800e-01  1.87311370e+01  2.82539370e+00  6.40121700e-01
  1.61277800e-01  3.04752490e+03  4.57369510e+02  1.03948690e+02  2.92101550e+01
  9.28666300e+00  3.16392700e+00  7.86827240e+00  1.88128850e+00  5.44249300e-01
  7.86827240e+00  1.88128850e+00  5.44249300e-01  1.68714400e-01  1.68714400e-01
  8.00000000e-01  4.38000000e-02  4.38000000e-02  3.04752490e+03  4.57369510e+02
  1.03948690e+02  2.92101550e+01  9.28666300e+00  3.16392700e+00  7.86827240e+00
  1.88128850e+00  5.44249300e-01  7.86827240e+00  1.88128850e+00  5.44249300e-01
  1.68714400e-01  1.68714400e-01  8.00000000e-01  4.38000000e-02  4.38000000e-02
  1.87311370e+01  2.82539370e+00  6.40121700e-01  1.61277800e-01  5.48467170e+03
  8.25234950e+02  1.88046960e+02  5.29645000e+01  1.68975700e+01  5.79963530e+00
  1.55396160e+01  3.59993360e+00  1.01376180e+00  1.55396160e+01  3.59993360e+00
  1.01376180e+00  2.70005800e-01  2.70005800e-01  8.00000000e-01  8.45000000e-02
  8.45000000e-02  5.48467170e+03  8.25234950e+02  1.88046960e+02  5.29645000e+01
  1.68975700e+01  5.79963530e+00  1.55396160e+01  3.59993360e+00  1.01376180e+00
  1.55396160e+01  3.59993360e+00  1.01376180e+00  2.70005800e-01  2.70005800e-01
  8.00000000e-01  8.45000000e-02  8.45000000e-02  3.04752490e+03  4.57369510e+02
  1.03948690e+02  2.92101550e+01  9.28666300e+00  3.16392700e+00  7.86827240e+00
  1.88128850e+00  5.44249300e-01  7.86827240e+00  1.88128850e+00  5.44249300e-01
  1.68714400e-01  1.68714400e-01  8.00000000e-01  4.38000000e-02  4.38000000e-02
  4.17351100e+03  6.27457900e+02  1.42902100e+02  4.02343300e+01  1.28202100e+01
  4.39043700e+00  1.16263580e+01  2.71628000e+00  7.72218000e-01  1.16263580e+01
  2.71628000e+00  7.72218000e-01  2.12031300e-01  2.12031300e-01  8.00000000e-01
  6.39000000e-02  6.39000000e-02  1.87311370e+01  2.82539370e+00  6.40121700e-01
  1.61277800e-01  3.04752490e+03  4.57369510e+02  1.03948690e+02  2.92101550e+01
  9.28666300e+00  3.16392700e+00  7.86827240e+00  1.88128850e+00  5.44249300e-01
  7.86827240e+00  1.88128850e+00  5.44249300e-01  1.68714400e-01  1.68714400e-01
  8.00000000e-01  4.38000000e-02  4.38000000e-02  3.04752490e+03  4.57369510e+02
  1.03948690e+02  2.92101550e+01  9.28666300e+00  3.16392700e+00  7.86827240e+00
  1.88128850e+00  5.44249300e-01  7.86827240e+00  1.88128850e+00  5.44249300e-01
  1.68714400e-01  1.68714400e-01  8.00000000e-01  4.38000000e-02  4.38000000e-02
  1.87311370e+01  2.82539370e+00  6.40121700e-01  1.61277800e-01  1.87311370e+01
  2.82539370e+00  6.40121700e-01  1.61277800e-01  3.04752490e+03  4.57369510e+02
  1.03948690e+02  2.92101550e+01  9.28666300e+00  3.16392700e+00  7.86827240e+00
  1.88128850e+00  5.44249300e-01  7.86827240e+00  1.88128850e+00  5.44249300e-01
  1.68714400e-01  1.68714400e-01  8.00000000e-01  4.38000000e-02  4.38000000e-02
  1.87311370e+01  2.82539370e+00  6.40121700e-01  1.61277800e-01  1.87311370e+01
  2.82539370e+00  6.40121700e-01  1.61277800e-01  1.87311370e+01  2.82539370e+00
  6.40121700e-01  1.61277800e-01  1.87311370e+01  2.82539370e+00  6.40121700e-01
  1.61277800e-01  1.87311370e+01  2.82539370e+00  6.40121700e-01  1.61277800e-01
  1.87311370e+01  2.82539370e+00  6.40121700e-01  1.61277800e-01  1.87311370e+01
  2.82539370e+00  6.40121700e-01  1.61277800e-01  3.04752490e+03  4.57369510e+02
  1.03948690e+02  2.92101550e+01  9.28666300e+00  3.16392700e+00  7.86827240e+00
  1.88128850e+00  5.44249300e-01  7.86827240e+00  1.88128850e+00  5.44249300e-01
  1.68714400e-01  1.68714400e-01  8.00000000e-01  4.38000000e-02  4.38000000e-02
  1.87311370e+01  2.82539370e+00  6.40121700e-01  1.61277800e-01  1.87311370e+01
  2.82539370e+00  6.40121700e-01  1.61277800e-01  1.87311370e+01  2.82539370e+00
  6.40121700e-01  1.61277800e-01  1.87311370e+01  2.82539370e+00  6.40121700e-01
  1.61277800e-01  1.87311370e+01  2.82539370e+00  6.40121700e-01  1.61277800e-01
Contraction coefficients                   R   N=         390
  1.83470016e-03  1.40373012e-02  6.88426061e-02  2.32184421e-01  4.67941342e-01
  3.62312032e-01 -1.19332409e-01 -1.60854212e-01  1.14345648e+00  6.89990956e-02
  3.16423980e-01  7.44308252e-01  1.00000000e+00  1.00000000e+00  1.00000000e+00
  1.00000000e+00  1.00000000e+00  1.83470016e-03  1.40373012e-02  6.88426061e-02
  2.32184421e-01  4.67941342e-01  3.62312032e-01 -1.19332409e-01 -1.60854212e-01
  1.14345648e+00  6.89990956e-02  3.16423980e-01  7.44308252e-01  1.00000000e+00
  1.00000000e+00  1.00000000e+00  1.00000000e+00  1.00000000e+00  1.83470016e-03
  1.40373012e-02  6.88426061e-02  2.32184421e-01  4.67941342e-01  3.62312032e-01
 -1.19332409e-01 -1.60854212e-01  1.14345648e+00  6.89990956e-02  3.16423980e-01
  7.44308252e-01  1.00000000e+00  1.00000000e+00  1.00000000e+00  1.00000000e+00
  1.00000000e+00  1.83470016e-03  1.40373012e-02  6.88426061e-02  2.32184421e-01
  4.67941342e-01  3.62312032e-01 -1.19332409e-01 -1.60854212e-01  1.14345648e+00
  6.89990956e-02  3.16423980e-01  7.44308252e-01  1.00000000e+00  1.00000000e+00
  1.00000000e+00  1.00000000e+00  1.00000000e+00  1.83470016e-03  1.40373012e-02
  6.88426061e-02  2.32184421e-01  4.67941342e-01  3.62312032e-01 -1.19332409e-01
 -1.60854212e-01  1.14345648e+00  6.89990956e-02  3.16423980e-01  7.44308252e-01
  1.00000000e+00  1.00000000e+00  1.00000000e+00  1.00000000e+00  1.00000000e+00
  1.83470016e-03  1.40373012e-02  6.88426061e-02  2.32184421e-01  4.67941342e-01
  3.62312032e-01 -1.19332409e-01 -1.60854212e-01  1.14345648e+00  6.89990956e-02
  3.16423980e-01  7.44308252e-01  1.00000000e+00  1.00000000e+00  1.00000000e+00
  1.00000000e+00  1.00000000e+00  1.83470016e-03  1.40373012e-02  6.88426061e-02
  2.32184421e-01  4.67941342e-01  3.62312032e-01 -1.19332409e-01 -1.60854212e-01
  1.14345648e+00  6.89990956e-02  3.16423980e-01  7.44308252e-01  1.00000000e+00
  1.00000000e+00  1.00000000e+00  1.00000000e+00  1.00000000e+00  1.83470016e-03
  1.40373012e-02  6.88426061e-02  2.32184421e-01  4.67941342e-01  3.62312032e-01
 -1.19332409e-01 -1.60854212e-01  1.14345648e+00  6.89990956e-02  3.16423980e-01
  7.44308252e-01  1.00000000e+00  1.00000000e+00  1.00000000e+00  1.00000000e+00
  1.00000000e+00  3.34945995e-02  2.34726947e-01  8.13757318e-01  1.00000000e+00
  3.34945995e-02  2.34726947e-01  8.13757318e-01  1.00000000e+00  3.34945995e-02
  2.34726947e-01  8.13757318e-01  1.00000000e+00  3.34945995e-02  2.34726947e-01
  8.13757318e-01  1.00000000e+00  3.34945995e-02  2.34726947e-01  8.13757318e-01
  1.00000000e+00  1.83470016e-03  1.40373012e-02  6.88426061e-02  2.32184421e-01
  4.67941342e-01  3.62312032e-01 -1.19332409e-01 -1.60854212e-01  1.14345648e+00
  6.89990956e-02  3.16423980e-01  7.44308252e-01  1.00000000e+00  1.00000000e+00
  1.00000000e+00  1.00000000e+00  1.00000000e+00  1.83470016e-03  1.40373012e-02
  6.88426061e-02  2.32184421e-01  4.67941342e-01  3.62312032e-01 -1.19332409e-01
 -1.60854212e-01  1.14345648e+00  6.89990956e-02  3.16423980e-01  7.44308252e-01
  1.00000000e+00  1.00000000e+00  1.00000000e+00  1.00000000e+00  1.00000000e+00
  3.34945995e-02  2.34726947e-01  8.13757318e-01  1.00000000e+00  1.83109981e-03
  1.39500985e-02  6.84450927e-02  2.32714275e-01  4.70192950e-01  3.58520862e-01
 -1.10777504e-01 -1.48026305e-01  1.13076704e+00  7.08742995e-02  3.39752798e-01
  7.27158595e-01  1.00000000e+00  1.00000000e+00  1.00000000e+00  1.00000000e+00
  1.00000000e+00  1.83109981e-03  1.39500985e-02  6.84450927e-02  2.32714275e-01
  4.70192950e-01  3.58520862e-01 -1.10777504e-01 -1.48026305e-01  1.13076704e+00
  7.08742995e-02  3.39752798e-01  7.27158595e-01  1.00000000e+00  1.00000000e+00
  1.00000000e+00  1.00000000e+00  1.00000000e+00  1.83470016e-03  1.40373012e-02
  6.88426061e-02  2.32184421e-01  4.67941342e-01  3.62312032e-01 -1.19332409e-01
 -1.60854212e-01  1.14345648e+00  6.89990956e-02  3.16423980e-01  7.44308252e-01
  1.00000000e+00  1.00000000e+00  1.00000000e+00  1.00000000e+00  1.00000000e+00
  1.83479944e-03  1.39949958e-02  6.85869792e-02  2.32240930e-01  4.69069858e-01
  3.60454891e-01 -1.14961023e-01 -1.69118034e-01  1.14585223e+00  6.75800232e-02
  3.23907111e-01  7.40895255e-01  1.00000000e+00  1.00000000e+00  1.00000000e+00
  1.00000000e+00  1.00000000e+00  3.34945995e-02  2.34726947e-01  8.13757318e-01
  1.00000000e+00  1.83470016e-03  1.40373012e-02  6.88426061e-02  2.32184421e-01
  4.67941342e-01  3.62312032e-01 -1.19332409e-01 -1.60854212e-01  1.14345648e+00
  6.89990956e-02  3.16423980e-01  7.44308252e-01  1.00000000e+00  1.00000000e+00
  1.00000000e+00  1.00000000e+00  1.00000000e+00  1.83470016e-03  1.40373012e-02
  6.88426061e-02  2.32184421e-01  4.67941342e-01  3.62312032e-01 -1.19332409e-01
 -1.60854212e-01  1.14345648e+00  6.89990956e-02  3.16423980e-01  7.44308252e-01
  1.00000000e+00  1.00000000e+00  1.00000000e+00  1.00000000e+00  1.00000000e+00
  3.34945995e-02  2.34726947e-01  8.13757318e-01  1.00000000e+00  3.34945995e-02
  2.34726947e-01  8.13757318e-01  1.00000000e+00  1.83470016e-03  1.40373012e-02
  6.88426061e-02  2.32184421e-01  4.67941342e-01  3.62312032e-01 -1.19332409e-01
 -1.60854212e-01  1.14345648e+00  6.89990956e-02  3.16423980e-01  7.44308252e-01
  1.00000000e+00  1.00000000e+00  1.00000000e+00  1.00000000e+00  1.00000000e+00
  3.34945995e-02  2.34726947e-01  8.13757318e-01  1.00000000e+00  3.34945995e-02
  2.34726947e-01  8.13757318e-01  1.00000000e+00  3.34945995e-02  2.34726947e-01
  8.13757318e-01  1.00000000e+00  3.34945995e-02  2.34726947e-01  8.13757318e-01
  1.00000000e+00  3.34945995e-02  2.34726947e-01  8.13757318e-01  1.00000000e+00
  3.34945995e-02  2.34726947e-01  8.13757318e-01  1.00000000e+00  3.34945995e-02
  2.34726947e-01  8.13757318e-01  1.00000000e+00  1.83470016e-03  1.40373012e-02
  6.88426061e-02  2.32184421e-01  4.67941342e-01  3.62312032e-01 -1.19332409e-01
 -1.60854212e-01  1.14345648e+00  6.89990956e-02  3.16423980e-01  7.44308252e-01
  1.00000000e+00  1.00000000e+00  1.00000000e+00  1.00000000e+00  1.00000000e+00
  3.34945995e-02  2.34726947e-01  8.13757318e-01  1.00000000e+00  3.34945995e-02
  2.34726947e-01  8.13757318e-01  1.00000000e+00  3.34945995e-02  2.34726947e-01
  8.13757318e-01  1.00000000e+00  3.34945995e-02  2.34726947e-01  8.13757318e-01
  1.00000000e+00  3.34945995e-02  2.34726947e-01  8.13757318e-01  1.00000000e+00
Coordinates of each shell                  R   N=         558
 -1.62853518e-01  1.52440080e+00  8.21560058e-02 -1.62853518e-01  1.52440080e+00
  8.21560058e-02 -1.62853518e-01  1.52440080e+00  8.21560058e-02 -1.62853518e-01
  1.52440080e+00  8.21560058e-02 -1.62853518e-01  1.52440080e+00  8.21560058e-02
 -1.62853518e-01  1.52440080e+00  8.21560058e-02 -1.62853518e-01  1.52440080e+00
  8.21560058e-02 -1.62853518e-01  1.52440080e+00  8.21560058e-02  3.73432048e+00
 -1.17926645e+00 -9.08738001e-01  3.73432048e+00 -1.17926645e+00 -9.08738001e-01
  3.73432048e+00 -1.17926645e+00 -9.08738001e-01  3.73432048e+00 -1.17926645e+00
 -9.08738001e-01  3.73432048e+00 -1.17926645e+00 -9.08738001e-01  3.73432048e+00
 -1.17926645e+00 -9.08738001e-01  3.73432048e+00 -1.17926645e+00 -9.08738001e-01
  3.73432048e+00 -1.17926645e+00 -9.08738001e-01  2.52575206e+00  1.18296178e+00
 -9.00428242e-01  2.52575206e+00  1.18296178e+00 -9.00428242e-01  2.52575206e+00
  1.18296178e+00 -9.00428242e-01  2.52575206e+00  1.18296178e+00 -9.00428242e-01
  2.52575206e+00  1.18296178e+00 -9.00428242e-01  2.52575206e+00  1.18296178e+00
 -9.00428242e-01  2.52575206e+00  1.18296178e+00 -9.00428242e-01  2.52575206e+00
  1.18296178e+00 -9.00428242e-01  6.19341143e+00 -1.43238251e+00 -1.83235359e+00
  6.19341143e+00 -1.43238251e+00 -1.83235359e+00  6.19341143e+00 -1.43238251e+00
 -1.83235359e+00  6.19341143e+00 -1.43238251e+00 -1.83235359e+00  6.19341143e+00
 -1.43238251e+00 -1.83235359e+00  6.19341143e+00 -1.43238251e+00 -1.83235359e+00
  6.19341143e+00 -1.43238251e+00 -1.83235359e+00  6.19341143e+00 -1.43238251e+00
 -1.83235359e+00  7.49659130e+00  6.72026273e-01 -2.75766543e+00  7.49659130e+00
  6.72026273e-01 -2.75766543e+00  7.49659130e+00  6.72026273e-01 -2.75766543e+00
  7.49659130e+00  6.72026273e-01 -2.75766543e+00  7.49659130e+00  6.72026273e-01
 -2.75766543e+00  7.49659130e+00  6.72026273e-01 -2.75766543e+00  7.49659130e+00
  6.72026273e-01 -2.75766543e+00  7.49659130e+00  6.72026273e-01 -2.75766543e+00
 -2.14031402e+00 -1.95476951e-01 -1.21939303e+00 -2.14031402e+00 -1.95476951e-01
 -1.21939303e+00 -2.14031402e+00 -1.95476951e-01 -1.21939303e+00 -2.14031402e+00
 -1.95476951e-01 -1.21939303e+00 -2.14031402e+00 -1.95476951e-01 -1.21939303e+00
 -2.14031402e+00 -1.95476951e-01 -1.21939303e+00 -2.14031402e+00 -1.95476951e-01
 -1.21939303e+00 -2.14031402e+00 -1.95476951e-01 -1.21939303e+00  3.85543896e+00
  3.27966127e+00 -1.82634882e+00  3.85543896e+00  3.27966127e+00 -1.82634882e+00
  3.85543896e+00  3.27966127e+00 -1.82634882e+00  3.85543896e+00  3.27966127e+00
 -1.82634882e+00  3.85543896e+00  3.27966127e+00 -1.82634882e+00  3.85543896e+00
  3.27966127e+00 -1.82634882e+00  3.85543896e+00  3.27966127e+00 -1.82634882e+00
  3.85543896e+00  3.27966127e+00 -1.82634882e+00  6.31878379e+00  3.03347114e+00
 -2.74811513e+00  6.31878379e+00  3.03347114e+00 -2.74811513e+00  6.31878379e+00
  3.03347114e+00 -2.74811513e+00  6.31878379e+00  3.03347114e+00 -2.74811513e+00
  6.31878379e+00  3.03347114e+00 -2.74811513e+00  6.31878379e+00  3.03347114e+00
 -2.74811513e+00  6.31878379e+00  3.03347114e+00 -2.74811513e+00  6.31878379e+00
  3.03347114e+00 -2.74811513e+00  7.09547207e+00 -3.27859551e+00 -1.82362206e+00
  7.09547207e+00 -3.27859551e+00 -1.82362206e+00  9.41132512e+00  4.71455193e-01
 -3.47416083e+00  9.41132512e+00  4.71455193e-01 -3.47416083e+00  2.75801201e+00
 -2.82531991e+00 -1.68964188e-01  2.75801201e+00 -2.82531991e+00 -1.68964188e-01
  7.31139897e+00  4.68727357e+00 -3.45565515e+00  7.31139897e+00  4.68727357e+00
 -3.45565515e+00  2.95416315e+00  5.12727737e+00 -1.82170328e+00  2.95416315e+00
  5.12727737e+00 -1.82170328e+00 -2.28375802e+00  2.42704584e-01 -4.09596975e+00
 -2.28375802e+00  2.42704584e-01 -4.09596975e+00 -2.28375802e+00  2.42704584e-01
 -4.09596975e+00 -2.28375802e+00  2.42704584e-01 -4.09596975e+00 -2.28375802e+00
  2.42704584e-01 -4.09596975e+00 -2.28375802e+00  2.42704584e-01 -4.09596975e+00
 -2.28375802e+00  2.42704584e-01 -4.09596975e+00 -2.28375802e+00  2.42704584e-01
 -4.09596975e+00 -3.02216139e-01  1.25440139e+00  2.96072037e+00 -3.02216139e-01
  1.25440139e+00  2.96072037e+00 -3.02216139e-01  1.25440139e+00  2.96072037e+00
 -3.02216139e-01  1.25440139e+00  2.96072037e+00 -3.02216139e-01  1.25440139e+00
  2.96072037e+00 -3.02216139e-01  1.25440139e+00  2.96072037e+00 -3.02216139e-01
  1.25440139e+00  2.96072037e+00 -3.02216139e-01  1.25440139e+00  2.96072037e+00
 -7.11382793e-01  3.49147848e+00 -2.67643417e-01 -7.11382793e-01  3.49147848e+00
 -2.67643417e-01 -6.89834088e-01  3.00780426e+00  4.39115771e+00 -6.89834088e-01
  3.00780426e+00  4.39115771e+00 -6.89834088e-01  3.00780426e+00  4.39115771e+00
 -6.89834088e-01  3.00780426e+00  4.39115771e+00 -6.89834088e-01  3.00780426e+00
  4.39115771e+00 -6.89834088e-01  3.00780426e+00  4.39115771e+00 -6.89834088e-01