Generated by Psi4
     FORCE                           RHF                       TESTBAS
Number of atoms                            I               37
Charge                                     I                0
Multiplicity                               I                1
Number of electrons                        I              148
Number of alpha electrons                  I               74
Number of beta electrons                   I               74
Number of basis functions                  I              388
Number of independent functions            I              388
Atomic numbers                             I   N=          37
           6           6           6           6          16           1
           1           1           6           6          16           6
           6           6           1           1           1           6
           6           1           6           1           1           1
           7           1           6           6           1           1
           1           6           1           1           1           1
           1
Nuclear charges                            R   N=          37
  6.00000000e+00  6.00000000e+00  6.00000000e+00  6.00000000e+00  1.60000000e+01
  1.00000000e+00  1.00000000e+00  1.00000000e+00  6.00000000e+00  6.00000000e+00
  1.60000000e+01  6.00000000e+00  6.00000000e+00  6.00000000e+00  1.00000000e+00
  1.00000000e+00  1.00000000e+00  6.00000000e+00  6.00000000e+00  1.00000000e+00
  6.00000000e+00  1.00000000e+00  1.00000000e+00  1.00000000e+00  7.00000000e+00
  1.00000000e+00  6.00000000e+00  6.00000000e+00  1.00000000e+00  1.00000000e+00
  1.00000000e+00  6.00000000e+00  1.00000000e+00  1.00000000e+00  1.00000000e+00
  1.00000000e+00  1.00000000e+00
Current cartesian coordinates              R   N=         111
  4.15629129e+00 -2.96246611e+00 -7.36424319e-01  1.68980338e+00 -2.15228137e+00
 -9.27033852e-01  4.84176411e+00 -4.80485005e+00 -2.58055854e+00  2.87909087e+00
 -5.41964760e+00 -4.15401943e+00  1.64577864e-01 -3.75125480e+00 -3.39670813e+00
  5.43931083e+00 -2.24378114e+00  6.92527308e-01  6.70969131e+00 -5.63805637e+00
 -2.72395617e+00  2.86119041e+00 -6.76185780e+00 -5.69744937e+00  3.65309460e-01
 -3.09889439e-01  7.19167990e-01  5.64344686e-01 -7.37633926e-01  3.47235299e+00
  4.71125613e-01 -3.78936907e+00  4.77079378e+00  6.36097940e-01 -2.61535136e+00
  7.82373791e+00  7.74277766e-01 -2.88651092e-02  7.84880489e+00  7.44100773e-01
  1.03581031e+00  5.37340711e+00  6.53738737e-01 -3.89987598e+00  9.41563164e+00
  9.27381346e-01  1.07947674e+00  9.56746491e+00  8.98658453e-01  3.04507809e+00
  4.99596634e+00 -9.59608646e-01  1.70879917e+00 -1.32599006e-01 -1.21398383e+00
  2.67246578e+00 -2.82378346e+00 -1.98254337e+00  2.80112745e+00  1.27451042e+00
  1.33439618e+00  3.65689552e+00 -3.87477144e+00  2.11597204e+00  5.16209677e+00
 -2.68798885e+00  1.10387594e+00  4.39384957e+00 -5.79767924e+00  2.72054719e+00
  2.12321898e+00 -3.94020776e+00 -3.32895988e+00  4.49916254e+00 -2.95049991e+00
 -1.79564174e+00  1.09835056e+00 -4.03451508e+00 -4.42510711e+00  4.68300214e+00
 -5.47209452e+00 -2.77735252e+00  6.98602900e+00 -1.85592787e+00 -4.92967991e+00
  2.79442226e+00 -6.15204766e+00 -3.15212477e+00  5.56848662e+00 -6.87913036e+00
 -6.16122588e+00  5.80346890e+00 -5.40686252e+00 -5.15088151e+00  8.38494730e+00
 -9.67320813e-01 -1.72003802e+00  8.19474773e+00 -3.19870325e+00 -1.53350021e+00
  6.70988567e+00 -2.23838446e-01 -6.42431129e+00  8.84272107e+00 -2.53399183e+00
 -4.62228694e+00  1.01718361e+01 -5.89307719e-02 -6.20250626e+00  7.23651935e+00
  3.97563803e-01
Integer atomic weights                     I   N=          37
          12          12          12          12          31           1
           1           1          12          12          31          12
          12          12           1           1           1          12
          12           1          12           1           1           1
          14           1          12          12           1           1
           1          12           1           1           1           1
           1
Real atomic weights                        R   N=          37
  1.20000000e+01  1.20000000e+01  1.20000000e+01  1.20000000e+01  3.19720712e+01
  1.00782503e+00  1.00782503e+00  1.00782503e+00  1.20000000e+01  1.20000000e+01
  3.19720712e+01  1.20000000e+01  1.20000000e+01  1.20000000e+01  1.00782503e+00
  1.00782503e+00  1.00782503e+00  1.20000000e+01  1.20000000e+01  1.00782503e+00
  1.20000000e+01  1.00782503e+00  1.00782503e+00  1.00782503e+00  1.40030740e+01
  1.00782503e+00  1.20000000e+01  1.20000000e+01  1.00782503e+00  1.00782503e+00
  1.00782503e+00  1.20000000e+01  1.00782503e+00  1.00782503e+00  1.00782503e+00
  1.00782503e+00  1.00782503e+00
Number of primitive shells                 I              406
Number of contracted shells                I              186
Pure/Cartesian d shells                    I                1
Pure/Cartesian f shells                    I                1
Highest angular momentum                   I                2
Largest degree of contraction              I                6
Shell types                                I   N=         186
           0           0           1           0           1           2
           0           1           0           0           1           0
           1           2           0           1           0           0
           1           0           1           2           0           1
           0           0           1           0           1           2
           0           1           0           0           1           0
           1           0           1           2           0           1
           0           0           0           0           0           0
           0           0           1           0           1           2
           0           1           0           0           1           0
           1           2           0           1           0           0
           1           0           1           0           1           2
           0           1           0           0           1           0
           1           2           0           1           0           0
           1           0           1           2           0           1
           0           0           1           0           1           2
           0           1           0           0           0           0
           0           0           0           0           1           0
           1           2           0           1           0           0
           1           0           1           2           0           1
           0           0           0           0           1           0
           1           2           0           1           0           0
           0           0           0           0           0           0
           1           0           1           2           0           1
           0           0           0           0           1           0
           1           2           0           1           0           0
           1           0           1           2           0           1
           0           0           0           0           0           0
           0           0           1           0           1           2
           0           1           0           0           0           0
           0           0           0           0           0           0
Number of primitives per shell             I   N=         186
           6           3           3           1           1           1
           1           1           6           3           3           1
           1           1           1           1           6           3
           3           1           1           1           1           1
           6           3           3           1           1           1
           1           1           6           6           6           3
           3           1           1           1           1           1
           3           1           3           1           3           1
           6           3           3           1           1           1
           1           1           6           3           3           1
           1           1           1           1           6           6
           6           3           3           1           1           1
           1           1           6           3           3           1
           1           1           1           1           6           3
           3           1           1           1           1           1
           6           3           3           1           1           1
           1           1           3           1           3           1
           3           1           6           3           3           1
           1           1           1           1           6           3
           3           1           1           1           1           1
           3           1           6           3           3           1
           1           1           1           1           3           1
           3           1           3           1           6           3
           3           1           1           1           1           1
           3           1           6           3           3           1
           1           1           1           1           6           3
           3           1           1           1           1           1
           3           1           3           1           3           1
           6           3           3           1           1           1
           1           1           3           1           3           1
           3           1           3           1           3           1
Shell to atom map                          I   N=         186
           1           1           1           1           1           1
           1           1           2           2           2           2
           2           2           2           2           3           3
           3           3           3           3           3           3
           4           4           4           4           4           4
           4           4           5           5           5           5
           5           5           5           5           5           5
           6           6           7           7           8           8
           9           9           9           9           9           9
           9           9          10          10          10          10
          10          10          10          10          11          11
          11          11          11          11          11          11
          11          11          12          12          12          12
          12          12          12          12          13          13
          13          13          13          13          13          13
          14          14          14          14          14          14
          14          14          15          15          16          16
          17          17          18          18          18          18
          18          18          18          18          19          19
          19          19          19          19          19          19
          20          20          21          21          21          21
          21          21          21          21          22          22
          23          23          24          24          25          25
          25          25          25          25          25          25
          26          26          27          27          27          27
          27          27          27          27          28          28
          28          28          28          28          28          28
          29          29          30          30          31          31
          32          32          32          32          32          32
          32          32          33          33          34          34
          35          35          36          36          37          37
Primitive exponents                        R   N=         406
  3.04752490e+03  4.57369510e+02  1.03948690e+02  2.92101550e+01  9.28666300e+00
  3.16392700e+00  7.86827240e+00  1.88128850e+00  5.44249300e-01  7.86827240e+00
  1.88128850e+00  5.44249300e-01  1.68714400e-01  1.68714400e-01  8.00000000e-01
  4.38000000e-02  4.38000000e-02  3.04752490e+03  4.57369510e+02  1.03948690e+02
  2.92101550e+01  9.28666300e+00  3.16392700e+00  7.86827240e+00  1.88128850e+00
  5.44249300e-01  7.86827240e+00  1.88128850e+00  5.44249300e-01  1.68714400e-01
  1.68714400e-01  8.00000000e-01  4.38000000e-02  4.38000000e-02  3.04752490e+03
  4.57369510e+02  1.03948690e+02  2.92101550e+01  9.28666300e+00  3.16392700e+00
  7.86827240e+00  1.88128850e+00  5.44249300e-01  7.86827240e+00  1.88128850e+00
  5.44249300e-01  1.68714400e-01  1.68714400e-01  8.00000000e-01  4.38000000e-02
  4.38000000e-02  3.04752490e+03  4.57369510e+02  1.03948690e+02  2.92101550e+01
  9.28666300e+00  3.16392700e+00  7.86827240e+00  1.88128850e+00  5.44249300e-01
  7.86827240e+00  1.88128850e+00  5.44249300e-01  1.68714400e-01  1.68714400e-01
  8.00000000e-01  4.38000000e-02  4.38000000e-02  2.19171000e+04  3.30149000e+03
  7.54146000e+02  2.12711000e+02  6.79896000e+01  2.30515000e+01  4.23735000e+02
  1.00710000e+02  3.21599000e+01  1.18079000e+01  4.63110000e+00  1.87025000e+00
  4.23735000e+02  1.00710000e+02  3.21599000e+01  1.18079000e+01  4.63110000e+00
  1.87025000e+00  2.61584000e+00  9.22167000e-01  3.41287000e-01  2.61584000e+00
  9.22167000e-01  3.41287000e-01  1.17167000e-01  1.17167000e-01  6.50000000e-01
  4.05000000e-02  4.05000000e-02  1.87311370e+01  2.82539370e+00  6.40121700e-01
  1.61277800e-01  1.87311370e+01  2.82539370e+00  6.40121700e-01  1.61277800e-01
  1.87311370e+01  2.82539370e+00  6.40121700e-01  1.61277800e-01  3.04752490e+03
  4.57369510e+02  1.03948690e+02  2.92101550e+01  9.28666300e+00  3.16392700e+00
  7.86827240e+00  1.88128850e+00  5.44249300e-01  7.86827240e+00  1.88128850e+00
  5.44249300e-01  1.68714400e-01  1.68714400e-01  8.00000000e-01  4.38000000e-02
  4.38000000e-02  3.04752490e+03  4.57369510e+02  1.03948690e+02  2.92101550e+01
  9.28666300e+00  3.16392700e+00  7.86827240e+00  1.88128850e+00  5.44249300e-01
  7.86827240e+00  1.88128850e+00  5.44249300e-01  1.68714400e-01  1.68714400e-01
  8.00000000e-01  4.38000000e-02  4.38000000e-02  2.19171000e+04  3.30149000e+03
  7.54146000e+02  2.12711000e+02  6.79896000e+01  2.30515000e+01  4.23735000e+02
  1.00710000e+02  3.21599000e+01  1.18079000e+01  4.63110000e+00  1.87025000e+00
  4.23735000e+02  1.00710000e+02  3.21599000e+01  1.18079000e+01  4.63110000e+00
  1.87025000e+00  2.61584000e+00  9.22167000e-01  3.41287000e-01  2.61584000e+00
  9.22167000e-01  3.41287000e-01  1.17167000e-01  1.17167000e-01  6.50000000e-01
  4.05000000e-02  4.05000000e-02  3.04752490e+03  4.57369510e+02  1.03948690e+02
  2.92101550e+01  9.28666300e+00  3.16392700e+00  7.86827240e+00  1.88128850e+00
  5.44249300e-01  7.86827240e+00  1.88128850e+00  5.44249300e-01  1.68714400e-01
  1.68714400e-01  8.00000000e-01  4.38000000e-02  4.38000000e-02  3.04752490e+03
  4.57369510e+02  1.03948690e+02  2.92101550e+01  9.28666300e+00  3.16392700e+00
  7.86827240e+00  1.88128850e+00  5.44249300e-01  7.86827240e+00  1.88128850e+00
  5.44249300e-01  1.68714400e-01  1.68714400e-01  8.00000000e-01  4.38000000e-02
  4.38000000e-02  3.04752490e+03  4.57369510e+02  1.03948690e+02  2.92101550e+01
  9.28666300e+00  3.16392700e+00  7.86827240e+00  1.88128850e+00  5.44249300e-01
  7.86827240e+00  1.88128850e+00  5.44249300e-01  1.68714400e-01  1.68714400e-01
  8.00000000e-01  4.38000000e-02  4.38000000e-02  1.87311370e+01  2.82539370e+00
  6.40121700e-01  1.61277800e-01  1.87311370e+01  2.82539370e+00  6.40121700e-01
  1.61277800e-01  1.87311370e+01  2.82539370e+00  6.40121700e-01  1.61277800e-01
  3.04752490e+03  4.57369510e+02  1.03948690e+02  2.92101550e+01  9.28666300e+00
  3.16392700e+00  7.86827240e+00  1.88128850e+00  5.44249300e-01  7.86827240e+00
  1.88128850e+00  5.44249300e-01  1.68714400e-01  1.68714400e-01  8.00000000e-01
  4.38000000e-02  4.38000000e-02  3.04752490e+03  4.57369510e+02  1.03948690e+02
  2.92101550e+01  9.28666300e+00  3.16392700e+00  7.86827240e+00  1.88128850e+00
  5.44249300e-01  7.86827240e+00  1.88128850e+00  5.44249300e-01  1.68714400e-01
  1.68714400e-01  8.00000000e-01  4.38000000e-02  4.38000000e-02  1.87311370e+01
  2.82539370e+00  6.40121700e-01  1.61277800e-01  3.04752490e+03  4.57369510e+02
  1.03948690e+02  2.92101550e+01  9.28666300e+00  3.16392700e+00  7.86827240e+00
  1.88128850e+00  5.44249300e-01  7.86827240e+00  1.88128850e+00  5.44249300e-01
  1.68714400e-01  1.68714400e-01  8.00000000e-01  4.38000000e-02  4.38000000e-02
  1.87311370e+01  2.82539370e+00  6.40121700e-01  1.61277800e-01  1.87311370e+01
  2.82539370e+00  6.40121700e-01  1.61277800e-01  1.87311370e+01  2.82539370e+00
  6.40121700e-01  1.61277800e-01  4.17351100e+03  6.27457900e+02  1.42902100e+02
  4.02343300e+01  1.28202100e+01  4.39043700e+00  1.16263580e+01  2.71628000e+00
  7.72218000e-01  1.16263580e+01  2.71628000e+00  7.72218000e-01  2.12031300e-01
  2.12031300e-01  8.00000000e-01  6.39000000e-02  6.39000000e-02  1.87311370e+01
  2.82539370e+00  6.40121700e-01  1.61277800e-01  3.04752490e+03  4.57369510e+02
  1.03948690e+02  2.92101550e+01  9.28666300e+00  3.16392700e+00  7.86827240e+00
  1.88128850e+00  5.44249300e-01  7.86827240e+00  1.88128850e+00  5.44249300e-01
  1.68714400e-01  1.68714400e-01  8.00000000e-01  4.38000000e-02  4.38000000e-02
  3.04752490e+03  4.57369510e+02  1.03948690e+02  2.92101550e+01  9.28666300e+00
  3.16392700e+00  7.86827240e+00  1.88128850e+00  5.44249300e-01  7.86827240e+00
  1.88128850e+00  5.44249300e-01  1.68714400e-01  1.68714400e-01  8.00000000e-01
  4.38000000e-02  4.38000000e-02  1.87311370e+01  2.82539370e+00  6.40121700e-01
  1.61277800e-01  1.87311370e+01  2.82539370e+00  6.40121700e-01  1.61277800e-01
  1.87311370e+01  2.82539370e+00  6.40121700e-01  1.61277800e-01  3.04752490e+03
  4.57369510e+02  1.03948690e+02  2.92101550e+01  9.28666300e+00  3.16392700e+00
  7.86827240e+00  1.88128850e+00  5.44249300e-01  7.86827240e+00  1.88128850e+00
  5.44249300e-01  1.68714400e-01  1.68714400e-01  8.00000000e-01  4.38000000e-02
  4.38000000e-02  1.87311370e+01  2.82539370e+00  6.40121700e-01  1.61277800e-01
  1.87311370e+01  2.82539370e+00  6.40121700e-01  1.61277800e-01  1.87311370e+01
  2.82539370e+00  6.40121700e-01  1.61277800e-01  1.87311370e+01  2.82539370e+00
  6.40121700e-01  1.61277800e-01  1.87311370e+01  2.82539370e+00  6.40121700e-01
  1.61277800e-01
Contraction coefficients                   R   N=         406
  1.83470016e-03  1.40373012e-02  6.88426061e-02  2.32184421e-01  4.67941342e-01
  3.62312032e-01 -1.19332409e-01 -1.60854212e-01  1.14345648e+00  6.89990956e-02
  3.16423980e-01  7.44308252e-01  1.00000000e+00  1.00000000e+00  1.00000000e+00
  1.00000000e+00  1.00000000e+00  1.83470016e-03  1.40373012e-02  6.88426061e-02
  2.32184421e-01  4.67941342e-01  3.62312032e-01 -1.19332409e-01 -1.60854212e-01
  1.14345648e+00  6.89990956e-02  3.16423980e-01  7.44308252e-01  1.00000000e+00
  1.00000000e+00  1.00000000e+00  1.00000000e+00  1.00000000e+00  1.83470016e-03
  1.40373012e-02  6.88426061e-02  2.32184421e-01  4.67941342e-01  3.62312032e-01
 -1.19332409e-01 -1.60854212e-01  1.14345648e+00  6.89990956e-02  3.16423980e-01
  7.44308252e-01  1.00000000e+00  1.00000000e+00  1.00000000e+00  1.00000000e+00
  1.00000000e+00  1.83470016e-03  1.40373012e-02  6.88426061e-02  2.32184421e-01
  4.67941342e-01  3.62312032e-01 -1.19332409e-01 -1.60854212e-01  1.14345648e+00
  6.89990956e-02  3.16423980e-01  7.44308252e-01  1.00000000e+00  1.00000000e+00
  1.00000000e+00  1.00000000e+00  1.00000000e+00  1.86900121e-03  1.42300092e-02
  6.96960451e-02  2.38487154e-01  4.83307312e-01  3.38074219e-01 -2.37670050e-03
 -3.16930066e-02 -1.13317024e-01  5.60900117e-02  5.92255123e-01  4.55006095e-01
  4.06100032e-03  3.06810024e-02  1.30452010e-01  3.27205026e-01  4.52851036e-01
  2.56042020e-01 -2.50373114e-01  6.69567631e-02  1.05450627e+00 -1.45109929e-02
  3.10262847e-01  7.54482628e-01  1.00000000e+00  1.00000000e+00  1.00000000e+00
  1.00000000e+00  1.00000000e+00  3.34945995e-02  2.34726947e-01  8.13757318e-01
  1.00000000e+00  3.34945995e-02  2.34726947e-01  8.13757318e-01  1.00000000e+00
  3.34945995e-02  2.34726947e-01  8.13757318e-01  1.00000000e+00  1.83470016e-03
  1.40373012e-02  6.88426061e-02  2.32184421e-01  4.67941342e-01  3.62312032e-01
 -1.19332409e-01 -1.60854212e-01  1.14345648e+00  6.89990956e-02  3.16423980e-01
  7.44308252e-01  1.00000000e+00  1.00000000e+00  1.00000000e+00  1.00000000e+00
  1.00000000e+00  1.83470016e-03  1.40373012e-02  6.88426061e-02  2.32184421e-01
  4.67941342e-01  3.62312032e-01 -1.19332409e-01 -1.60854212e-01  1.14345648e+00
  6.89990956e-02  3.16423980e-01  7.44308252e-01  1.00000000e+00  1.00000000e+00
  1.00000000e+00  1.00000000e+00  1.00000000e+00  1.86900121e-03  1.42300092e-02
  6.96960451e-02  2.38487154e-01  4.83307312e-01  3.38074219e-01 -2.37670050e-03
 -3.16930066e-02 -1.13317024e-01  5.60900117e-02  5.92255123e-01  4.55006095e-01
  4.06100032e-03  3.06810024e-02  1.30452010e-01  3.27205026e-01  4.52851036e-01
  2.56042020e-01 -2.50373114e-01  6.69567631e-02  1.05450627e+00 -1.45109929e-02
  3.10262847e-01  7.54482628e-01  1.00000000e+00  1.00000000e+00  1.00000000e+00
  1.00000000e+00  1.00000000e+00  1.83470016e-03  1.40373012e-02  6.88426061e-02
  2.32184421e-01  4.67941342e-01  3.62312032e-01 -1.19332409e-01 -1.60854212e-01
  1.14345648e+00  6.89990956e-02  3.16423980e-01  7.44308252e-01  1.00000000e+00
  1.00000000e+00  1.00000000e+00  1.00000000e+00  1.00000000e+00  1.83470016e-03
  1.40373012e-02  6.88426061e-02  2.32184421e-01  4.67941342e-01  3.62312032e-01
 -1.19332409e-01 -1.60854212e-01  1.14345648e+00  6.89990956e-02  3.16423980e-01
  7.44308252e-01  1.00000000e+00  1.00000000e+00  1.00000000e+00  1.00000000e+00
  1.00000000e+00  1.83470016e-03  1.40373012e-02  6.88426061e-02  2.32184421e-01
  4.67941342e-01  3.62312032e-01 -1.19332409e-01 -1.60854212e-01  1.14345648e+00
  6.89990956e-02  3.16423980e-01  7.44308252e-01  1.00000000e+00  1.00000000e+00
  1.00000000e+00  1.00000000e+00  1.00000000e+00  3.34945995e-02  2.34726947e-01
  8.13757318e-01  1.00000000e+00  3.34945995e-02  2.34726947e-01  8.13757318e-01
  1.00000000e+00  3.34945995e-02  2.34726947e-01  8.13757318e-01  1.00000000e+00
  1.83470016e-03  1.40373012e-02  6.88426061e-02  2.32184421e-01  4.67941342e-01
  3.62312032e-01 -1.19332409e-01 -1.60854212e-01  1.14345648e+00  6.89990956e-02
  3.16423980e-01  7.44308252e-01  1.00000000e+00  1.00000000e+00  1.00000000e+00
  1.00000000e+00  1.00000000e+00  1.83470016e-03  1.40373012e-02  6.88426061e-02
  2.32184421e-01  4.67941342e-01  3.62312032e-01 -1.19332409e-01 -1.60854212e-01
  1.14345648e+00  6.89990956e-02  3.16423980e-01  7.44308252e-01  1.00000000e+00
  1.00000000e+00  1.00000000e+00  1.00000000e+00  1.00000000e+00  3.34945995e-02
  2.34726947e-01  8.13757318e-01  1.00000000e+00  1.83470016e-03  1.40373012e-02
  6.88426061e-02  2.32184421e-01  4.67941342e-01  3.62312032e-01 -1.19332409e-01
 -1.60854212e-01  1.14345648e+00  6.89990956e-02  3.16423980e-01  7.44308252e-01
  1.00000000e+00  1.00000000e+00  1.00000000e+00  1.00000000e+00  1.00000000e+00
  3.34945995e-02  2.34726947e-01  8.13757318e-01  1.00000000e+00  3.34945995e-02
  2.34726947e-01  8.13757318e-01  1.00000000e+00  3.34945995e-02  2.34726947e-01
  8.13757318e-01  1.00000000e+00  1.83479944e-03  1.39949958e-02  6.85869792e-02
  2.32240930e-01  4.69069858e-01  3.60454891e-01 -1.14961023e-01 -1.69118034e-01
  1.14585223e+00  6.75800232e-02  3.23907111e-01  7.40895255e-01  1.00000000e+00
  1.00000000e+00  1.00000000e+00  1.00000000e+00  1.00000000e+00  3.34945995e-02
  2.34726947e-01  8.13757318e-01  1.00000000e+00  1.83470016e-03  1.40373012e-02
  6.88426061e-02  2.32184421e-01  4.67941342e-01  3.62312032e-01 -1.19332409e-01
 -1.60854212e-01  1.14345648e+00  6.89990956e-02  3.16423980e-01  7.44308252e-01
  1.00000000e+00  1.00000000e+00  1.00000000e+00  1.00000000e+00  1.00000000e+00
  1.83470016e-03  1.40373012e-02  6.88426061e-02  2.32184421e-01  4.67941342e-01
  3.62312032e-01 -1.19332409e-01 -1.60854212e-01  1.14345648e+00  6.89990956e-02
  3.16423980e-01  7.44308252e-01  1.00000000e+00  1.00000000e+00  1.00000000e+00
  1.00000000e+00  1.00000000e+00  3.34945995e-02  2.34726947e-01  8.13757318e-01
  1.00000000e+00  3.34945995e-02  2.34726947e-01  8.13757318e-01  1.00000000e+00
  3.34945995e-02  2.34726947e-01  8.13757318e-01  1.00000000e+00  1.83470016e-03
  1.40373012e-02  6.88426061e-02  2.32184421e-01  4.67941342e-01  3.62312032e-01
 -1.19332409e-01 -1.60854212e-01  1.14345648e+00  6.89990956e-02  3.16423980e-01
  7.44308252e-01  1.00000000e+00  1.00000000e+00  1.00000000e+00  1.00000000e+00
  1.00000000e+00  3.34945995e-02  2.34726947e-01  8.13757318e-01  1.00000000e+00
  3.34945995e-02  2.34726947e-01  8.13757318e-01  1.00000000e+00  3.34945995e-02
  2.34726947e-01  8.13757318e-01  1.00000000e+00  3.34945995e-02  2.34726947e-01
  8.13757318e-01  1.00000000e+00  3.34945995e-02  2.34726947e-01  8.13757318e-01
  1.00000000e+00
Coordinates of each shell                  R   N=         558
  4.15629129e+00 -2.96246611e+00 -7.36424319e-01  4.15629129e+00 -2.96246611e+00
 -7.36424319e-01  4.15629129e+00 -2.96246611e+00 -7.36424319e-01  4.15629129e+00
 -2.96246611e+00 -7.36424319e-01  4.15629129e+00 -2.96246611e+00 -7.36424319e-01
  4.15629129e+00 -2.96246611e+00 -7.36424319e-01  4.15629129e+00 -2.96246611e+00
 -7.36424319e-01  4.15629129e+00 -2.96246611e+00 -7.36424319e-01  1.68980338e+00
 -2.15228137e+00 -9.27033852e-01  1.68980338e+00 -2.15228137e+00 -9.27033852e-01
  1.68980338e+00 -2.15228137e+00 -9.27033852e-01  1.68980338e+00 -2.15228137e+00
 -9.27033852e-01  1.68980338e+00 -2.15228137e+00 -9.27033852e-01  1.68980338e+00
 -2.15228137e+00 -9.27033852e-01  1.68980338e+00 -2.15228137e+00 -9.27033852e-01
  1.68980338e+00 -2.15228137e+00 -9.27033852e-01  4.84176411e+00 -4.80485005e+00
 -2.58055854e+00  4.84176411e+00 -4.80485005e+00 -2.58055854e+00  4.84176411e+00
 -4.80485005e+00 -2.58055854e+00  4.84176411e+00 -4.80485005e+00 -2.58055854e+00
  4.84176411e+00 -4.80485005e+00 -2.58055854e+00  4.84176411e+00 -4.80485005e+00
 -2.58055854e+00  4.84176411e+00 -4.80485005e+00 -2.58055854e+00  4.84176411e+00
 -4.80485005e+00 -2.58055854e+00  2.87909087e+00 -5.41964760e+00 -4.15401943e+00
  2.87909087e+00 -5.41964760e+00 -4.15401943e+00  2.87909087e+00 -5.41964760e+00
 -4.15401943e+00  2.87909087e+00 -5.41964760e+00 -4.15401943e+00  2.87909087e+00
 -5.41964760e+00 -4.15401943e+00  2.87909087e+00 -5.41964760e+00 -4.15401943e+00
  2.87909087e+00 -5.41964760e+00 -4.15401943e+00  2.87909087e+00 -5.41964760e+00
 -4.15401943e+00  1.64577864e-01 -3.75125480e+00 -3.39670813e+00  1.64577864e-01
 -3.75125480e+00 -3.39670813e+00  1.64577864e-01 -3.75125480e+00 -3.39670813e+00
  1.64577864e-01 -3.75125480e+00 -3.39670813e+00  1.64577864e-01 -3.75125480e+00
 -3.39670813e+00  1.64577864e-01 -3.75125480e+00 -3.39670813e+00  1.64577864e-01
 -3.75125480e+00 -3.39670813e+00  1.64577864e-01 -3.75125480e+00 -3.39670813e+00
  1.64577864e-01 -3.75125480e+00 -3.39670813e+00  1.64577864e-01 -3.75125480e+00
 -3.39670813e+00  5.43931083e+00 -2.24378114e+00  6.92527308e-01  5.43931083e+00
 -2.24378114e+00  6.92527308e-01  6.70969131e+00 -5.63805637e+00 -2.72395617e+00
  6.70969131e+00 -5.63805637e+00 -2.72395617e+00  2.86119041e+00 -6.76185780e+00
 -5.69744937e+00  2.86119041e+00 -6.76185780e+00 -5.69744937e+00  3.65309460e-01
 -3.09889439e-01  7.19167990e-01  3.65309460e-01 -3.09889439e-01  7.19167990e-01
  3.65309460e-01 -3.09889439e-01  7.19167990e-01  3.65309460e-01 -3.09889439e-01
  7.19167990e-01  3.65309460e-01 -3.09889439e-01  7.19167990e-01  3.65309460e-01
 -3.09889439e-01  7.19167990e-01  3.65309460e-01 -3.09889439e-01  7.19167990e-01
  3.65309460e-01 -3.09889439e-01  7.19167990e-01  5.64344686e-01 -7.37633926e-01
  3.47235299e+00  5.64344686e-01 -7.37633926e-01  3.47235299e+00  5.64344686e-01
 -7.37633926e-01  3.47235299e+00  5.64344686e-01 -7.37633926e-01  3.47235299e+00
  5.64344686e-01 -7.37633926e-01  3.47235299e+00  5.64344686e-01 -7.37633926e-01
  3.47235299e+00  5.64344686e-01 -7.37633926e-01  3.47235299e+00  5.64344686e-01
 -7.37633926e-01  3.47235299e+00  4.71125613e-01 -3.78936907e+00  4.77079378e+00
  4.71125613e-01 -3.78936907e+00  4.77079378e+00  4.71125613e-01 -3.78936907e+00
  4.77079378e+00  4.71125613e-01 -3.78936907e+00  4.77079378e+00  4.71125613e-01
 -3.78936907e+00  4.77079378e+00  4.71125613e-01 -3.78936907e+00  4.77079378e+00
  4.71125613e-01 -3.78936907e+00  4.77079378e+00  4.71125613e-01 -3.78936907e+00
  4.77079378e+00  4.71125613e-01 -3.78936907e+00  4.77079378e+00  4.71125613e-01
 -3.78936907e+00  4.77079378e+00  6.36097940e-01 -2.61535136e+00  7.82373791e+00
  6.36097940e-01 -2.61535136e+00  7.82373791e+00  6.36097940e-01 -2.61535136e+00
  7.82373791e+00  6.36097940e-01 -2.61535136e+00  7.82373791e+00  6.36097940e-01
 -2.61535136e+00  7.82373791e+00  6.36097940e-01 -2.61535136e+00  7.82373791e+00
  6.36097940e-01 -2.61535136e+00  7.82373791e+00  6.36097940e-01 -2.61535136e+00
  7.82373791e+00  7.74277766e-01 -2.88651092e-02  7.84880489e+00  7.74277766e-01
 -2.88651092e-02  7.84880489e+00  7.74277766e-01 -2.88651092e-02  7.84880489e+00
  7.74277766e-01 -2.88651092e-02  7.84880489e+00  7.74277766e-01 -2.88651092e-02
  7.84880489e+00  7.74277766e-01 -2.88651092e-02  7.84880489e+00  7.74277766e-01
 -2.88651092e-02  7.84880489e+00  7.74277766e-01 -2.88651092e-02  7.84880489e+00
  7.44100773e-01  1.03581031e+00  5.37340711e+00  7.44100773e-01  1.03581031e+00