Generated by Psi4
     FORCE                           RHF                       TESTBAS
Number of atoms                            I               30
Charge                                     I                0
Multiplicity                               I                1
Number of electrons                        I              102
Number of alpha electrons                  I               51
Number of beta electrons                   I               51
Number of basis functions                  I              298
Number of independent functions            I              298
Atomic numbers                             I   N=          30
           6           6           6           7           6           6
           6           6           6           1           1           1
           1           1           6           1           1           1
           1           6           1           1           1           6
           1           1           6           1           1           7
Nuclear charges                            R   N=          30
  6.00000000e+00  6.00000000e+00  6.00000000e+00  7.00000000e+00  6.00000000e+00
  6.00000000e+00  6.00000000e+00  6.00000000e+00  6.00000000e+00  1.00000000e+00
  1.00000000e+00  1.00000000e+00  1.00000000e+00  1.00000000e+00  6.00000000e+00
  1.00000000e+00  1.00000000e+00  1.00000000e+00  1.00000000e+00  6.00000000e+00
  1.00000000e+00  1.00000000e+00  1.00000000e+00  6.00000000e+00  1.00000000e+00
  1.00000000e+00  6.00000000e+00  1.00000000e+00  1.00000000e+00  7.00000000e+00
Current cartesian coordinates              R   N=          90
  3.27861492e+00 -6.71006489e-01 -2.48591528e+00  1.71678211e+00 -1.72438935e+00
 -3.30241753e-01 -1.98256327e-01  1.62515060e-01  8.17788417e-01 -1.85892104e+00
 -1.25905183e+00  2.54499106e+00  5.83333202e+00 -4.43142011e-02 -2.16727237e+00
  7.25542558e+00  9.42391676e-01 -4.16401424e+00  6.13876065e+00  1.31958080e+00
 -6.52606602e+00  3.59485383e+00  6.94571696e-01 -6.87571463e+00  2.18618308e+00
 -2.93964363e-01 -4.87484422e+00  6.72386369e+00 -3.38719014e-01 -3.37085864e-01
  2.13527023e-01 -7.94555170e-01 -5.17472883e+00  9.23497375e+00  1.40958555e+00
 -3.87261132e+00  7.24032301e+00  2.08264675e+00 -8.08287341e+00  2.71052579e+00
  9.65241263e-01 -8.71054452e+00  1.10867484e+00  2.45427875e+00  2.03622292e+00
 -1.41995036e+00  8.40478981e-01 -7.18808892e-01  2.33267529e+00  1.85131779e+00
  3.60204190e+00 -2.70434931e-01  3.80359360e+00  2.78752753e+00  2.28593909e+00
  3.46000075e+00  6.62583382e-01 -4.03161384e+00  1.22405286e-01  3.53097103e+00
 -8.09326890e-01 -1.95912405e+00  4.00437246e+00  2.98097477e+00 -2.39122298e+00
  1.17820784e+00  6.38168314e-01 -3.37164837e+00 -9.76970427e-01 -5.92089705e+00
 -1.76552927e+00  4.70388954e+00 -4.94777949e+00  1.09449330e+00  1.94824632e+00
 -3.55664226e+00  1.57678199e+00  4.94544829e+00 -8.17535110e+00 -5.12711927e-01
  5.71548804e+00 -5.01449824e+00 -2.82175029e+00  6.24219464e+00 -6.48855673e+00
 -3.14976536e+00  3.27218988e+00 -9.95167445e+00  5.10576841e-01  6.50025819e+00
Integer atomic weights                     I   N=          30
          12          12          12          14          12          12
          12          12          12           1           1           1
           1           1          12           1           1           1
           1          12           1           1           1          12
           1           1          12           1           1          14
Real atomic weights                        R   N=          30
  1.20000000e+01  1.20000000e+01  1.20000000e+01  1.40030740e+01  1.20000000e+01
  1.20000000e+01  1.20000000e+01  1.20000000e+01  1.20000000e+01  1.00782503e+00
  1.00782503e+00  1.00782503e+00  1.00782503e+00  1.00782503e+00  1.20000000e+01
  1.00782503e+00  1.00782503e+00  1.00782503e+00  1.00782503e+00  1.20000000e+01
  1.00782503e+00  1.00782503e+00  1.00782503e+00  1.20000000e+01  1.00782503e+00
  1.00782503e+00  1.20000000e+01  1.00782503e+00  1.00782503e+00  1.40030740e+01
Number of primitive shells                 I              302
Number of contracted shells                I              144
Pure/Cartesian d shells                    I                1
Pure/Cartesian f shells                    I                1
Highest angular momentum                   I                2
Largest degree of contraction              I                6
Shell types                                I   N=         144
           0           0           1           0           1           2
           0           1           0           0           1           0
           1           2           0           1           0           0
           1           0           1           2           0           1
           0           0           1           0           1           2
           0           1           0           0           1           0
           1           2           0           1           0           0
           1           0           1           2           0           1
           0           0           1           0           1           2
           0           1           0           0           1           0
           1           2           0           1           0           0
           1           0           1           2           0           1
           0           0           0           0           0           0
           0           0           0           0           0           0
           1           0           1           2           0           1
           0           0           0           0           0           0
           0           0           0           0           1           0
           1           2           0           1           0           0
           0           0           0           0           0           0
           1           0           1           2           0           1
           0           0           0           0           0           0
           1           0           1           2           0           1
           0           0           0           0           0           0
           1           0           1           2           0           1
Number of primitives per shell             I   N=         144
           6           3           3           1           1           1
           1           1           6           3           3           1
           1           1           1           1           6           3
           3           1           1           1           1           1
           6           3           3           1           1           1
           1           1           6           3           3           1
           1           1           1           1           6           3
           3           1           1           1           1           1
           6           3           3           1           1           1
           1           1           6           3           3           1
           1           1           1           1           6           3
           3           1           1           1           1           1
           3           1           3           1           3           1
           3           1           3           1           6           3
           3           1           1           1           1           1
           3           1           3           1           3           1
           3           1           6           3           3           1
           1           1           1           1           3           1
           3           1           3           1           6           3
           3           1           1           1           1           1
           3           1           3           1           6           3
           3           1           1           1           1           1
           3           1           3           1           6           3
           3           1           1           1           1           1
Shell to atom map                          I   N=         144
           1           1           1           1           1           1
           1           1           2           2           2           2
           2           2           2           2           3           3
           3           3           3           3           3           3
           4           4           4           4           4           4
           4           4           5           5           5           5
           5           5           5           5           6           6
           6           6           6           6           6           6
           7           7           7           7           7           7
           7           7           8           8           8           8
           8           8           8           8           9           9
           9           9           9           9           9           9
          10          10          11          11          12          12
          13          13          14          14          15          15
          15          15          15          15          15          15
          16          16          17          17          18          18
          19          19          20          20          20          20
          20          20          20          20          21          21
          22          22          23          23          24          24
          24          24          24          24          24          24
          25          25          26          26          27          27
          27          27          27          27          27          27
          28          28          29          29          30          30
          30          30          30          30          30          30
Primitive exponents                        R   N=         302
  3.04752490e+03  4.57369510e+02  1.03948690e+02  2.92101550e+01  9.28666300e+00
  3.16392700e+00  7.86827240e+00  1.88128850e+00  5.44249300e-01  7.86827240e+00
  1.88128850e+00  5.44249300e-01  1.68714400e-01  1.68714400e-01  8.00000000e-01
  4.38000000e-02  4.38000000e-02  3.04752490e+03  4.57369510e+02  1.03948690e+02
  2.92101550e+01  9.28666300e+00  3.16392700e+00  7.86827240e+00  1.88128850e+00
  5.44249300e-01  7.86827240e+00  1.88128850e+00  5.44249300e-01  1.68714400e-01
  1.68714400e-01  8.00000000e-01  4.38000000e-02  4.38000000e-02  3.04752490e+03
  4.57369510e+02  1.03948690e+02  2.92101550e+01  9.28666300e+00  3.16392700e+00
  7.86827240e+00  1.88128850e+00  5.44249300e-01  7.86827240e+00  1.88128850e+00
  5.44249300e-01  1.68714400e-01  1.68714400e-01  8.00000000e-01  4.38000000e-02
  4.38000000e-02  4.17351100e+03  6.27457900e+02  1.42902100e+02  4.02343300e+01
  1.28202100e+01  4.39043700e+00  1.16263580e+01  2.71628000e+00  7.72218000e-01
  1.16263580e+01  2.71628000e+00  7.72218000e-01  2.12031300e-01  2.12031300e-01
  8.00000000e-01  6.39000000e-02  6.39000000e-02  3.04752490e+03  4.57369510e+02
  1.03948690e+02  2.92101550e+01  9.28666300e+00  3.16392700e+00  7.86827240e+00
  1.88128850e+00  5.44249300e-01  7.86827240e+00  1.88128850e+00  5.44249300e-01
  1.68714400e-01  1.68714400e-01  8.00000000e-01  4.38000000e-02  4.38000000e-02
  3.04752490e+03  4.57369510e+02  1.03948690e+02  2.92101550e+01  9.28666300e+00
  3.16392700e+00  7.86827240e+00  1.88128850e+00  5.44249300e-01  7.86827240e+00
  1.88128850e+00  5.44249300e-01  1.68714400e-01  1.68714400e-01  8.00000000e-01
  4.38000000e-02  4.38000000e-02  3.04752490e+03  4.57369510e+02  1.03948690e+02
  2.92101550e+01  9.28666300e+00  3.16392700e+00  7.86827240e+00  1.88128850e+00
  5.44249300e-01  7.86827240e+00  1.88128850e+00  5.44249300e-01  1.68714400e-01
  1.68714400e-01  8.00000000e-01  4.38000000e-02  4.38000000e-02  3.04752490e+03
  4.57369510e+02  1.03948690e+02  2.92101550e+01  9.28666300e+00  3.16392700e+00
  7.86827240e+00  1.88128850e+00  5.44249300e-01  7.86827240e+00  1.88128850e+00
  5.44249300e-01  1.68714400e-01  1.68714400e-01  8.00000000e-01  4.38000000e-02
  4.38000000e-02  3.04752490e+03  4.57369510e+02  1.03948690e+02  2.92101550e+01
  9.28666300e+00  3.16392700e+00  7.86827240e+00  1.88128850e+00  5.44249300e-01
  7.86827240e+00  1.88128850e+00  5.44249300e-01  1.68714400e-01  1.68714400e-01
  8.00000000e-01  4.38000000e-02  4.38000000e-02  1.87311370e+01  2.82539370e+00
  6.40121700e-01  1.61277800e-01  1.87311370e+01  2.82539370e+00  6.40121700e-01
  1.61277800e-01  1.87311370e+01  2.82539370e+00  6.40121700e-01  1.61277800e-01
  1.87311370e+01  2.82539370e+00  6.40121700e-01  1.61277800e-01  1.87311370e+01
  2.82539370e+00  6.40121700e-01  1.61277800e-01  3.04752490e+03  4.57369510e+02
  1.03948690e+02  2.92101550e+01  9.28666300e+00  3.16392700e+00  7.86827240e+00
  1.88128850e+00  5.44249300e-01  7.86827240e+00  1.88128850e+00  5.44249300e-01
  1.68714400e-01  1.68714400e-01  8.00000000e-01  4.38000000e-02  4.38000000e-02
  1.87311370e+01  2.82539370e+00  6.40121700e-01  1.61277800e-01  1.87311370e+01
  2.82539370e+00  6.40121700e-01  1.61277800e-01  1.87311370e+01  2.82539370e+00
  6.40121700e-01  1.61277800e-01  1.87311370e+01  2.82539370e+00  6.40121700e-01
  1.61277800e-01  3.04752490e+03  4.57369510e+02  1.03948690e+02  2.92101550e+01
  9.28666300e+00  3.16392700e+00  7.86827240e+00  1.88128850e+00  5.44249300e-01
  7.86827240e+00  1.88128850e+00  5.44249300e-01  1.68714400e-01  1.68714400e-01
  8.00000000e-01  4.38000000e-02  4.38000000e-02  1.87311370e+01  2.82539370e+00
  6.40121700e-01  1.61277800e-01  1.87311370e+01  2.82539370e+00  6.40121700e-01
  1.61277800e-01  1.87311370e+01  2.82539370e+00  6.40121700e-01  1.61277800e-01
  3.04752490e+03  4.57369510e+02  1.03948690e+02  2.92101550e+01  9.28666300e+00
  3.16392700e+00  7.86827240e+00  1.88128850e+00  5.44249300e-01  7.86827240e+00
  1.88128850e+00  5.44249300e-01  1.68714400e-01  1.68714400e-01  8.00000000e-01
  4.38000000e-02  4.38000000e-02  1.87311370e+01  2.82539370e+00  6.40121700e-01
  1.61277800e-01  1.87311370e+01  2.82539370e+00  6.40121700e-01  1.61277800e-01
  3.04752490e+03  4.57369510e+02  1.03948690e+02  2.92101550e+01  9.28666300e+00
  3.16392700e+00  7.86827240e+00  1.88128850e+00  5.44249300e-01  7.86827240e+00
  1.88128850e+00  5.44249300e-01  1.68714400e-01  1.68714400e-01  8.00000000e-01
  4.38000000e-02  4.38000000e-02  1.87311370e+01  2.82539370e+00  6.40121700e-01
  1.61277800e-01  1.87311370e+01  2.82539370e+00  6.40121700e-01  1.61277800e-01
  4.17351100e+03  6.27457900e+02  1.42902100e+02  4.02343300e+01  1.28202100e+01
  4.39043700e+00  1.16263580e+01  2.71628000e+00  7.72218000e-01  1.16263580e+01
  2.71628000e+00  7.72218000e-01  2.12031300e-01  2.12031300e-01  8.00000000e-01
  6.39000000e-02  6.39000000e-02
Contraction coefficients                   R   N=         302
  1.83470016e-03  1.40373012e-02  6.88426061e-02  2.32184421e-01  4.67941342e-01
  3.62312032e-01 -1.19332409e-01 -1.60854212e-01  1.14345648e+00  6.89990956e-02
  3.16423980e-01  7.44308252e-01  1.00000000e+00  1.00000000e+00  1.00000000e+00
  1.00000000e+00  1.00000000e+00  1.83470016e-03  1.40373012e-02  6.88426061e-02
  2.32184421e-01  4.67941342e-01  3.62312032e-01 -1.19332409e-01 -1.60854212e-01
  1.14345648e+00  6.89990956e-02  3.16423980e-01  7.44308252e-01  1.00000000e+00
  1.00000000e+00  1.00000000e+00  1.00000000e+00  1.00000000e+00  1.83470016e-03
  1.40373012e-02  6.88426061e-02  2.32184421e-01  4.67941342e-01  3.62312032e-01
 -1.19332409e-01 -1.60854212e-01  1.14345648e+00  6.89990956e-02  3.16423980e-01
  7.44308252e-01  1.00000000e+00  1.00000000e+00  1.00000000e+00  1.00000000e+00
  1.00000000e+00  1.83479944e-03  1.39949958e-02  6.85869792e-02  2.32240930e-01
  4.69069858e-01  3.60454891e-01 -1.14961023e-01 -1.69118034e-01  1.14585223e+00
  6.75800232e-02  3.23907111e-01  7.40895255e-01  1.00000000e+00  1.00000000e+00
  1.00000000e+00  1.00000000e+00  1.00000000e+00  1.83470016e-03  1.40373012e-02
  6.88426061e-02  2.32184421e-01  4.67941342e-01  3.62312032e-01 -1.19332409e-01
 -1.60854212e-01  1.14345648e+00  6.89990956e-02  3.16423980e-01  7.44308252e-01
  1.00000000e+00  1.00000000e+00  1.00000000e+00  1.00000000e+00  1.00000000e+00
  1.83470016e-03  1.40373012e-02  6.88426061e-02  2.32184421e-01  4.67941342e-01
  3.62312032e-01 -1.19332409e-01 -1.60854212e-01  1.14345648e+00  6.89990956e-02
  3.16423980e-01  7.44308252e-01  1.00000000e+00  1.00000000e+00  1.00000000e+00
  1.00000000e+00  1.00000000e+00  1.83470016e-03  1.40373012e-02  6.88426061e-02
  2.32184421e-01  4.67941342e-01  3.62312032e-01 -1.19332409e-01 -1.60854212e-01
  1.14345648e+00  6.89990956e-02  3.16423980e-01  7.44308252e-01  1.00000000e+00
  1.00000000e+00  1.00000000e+00  1.00000000e+00  1.00000000e+00  1.83470016e-03
  1.40373012e-02  6.88426061e-02  2.32184421e-01  4.67941342e-01  3.62312032e-01
 -1.19332409e-01 -1.60854212e-01  1.14345648e+00  6.89990956e-02  3.16423980e-01
  7.44308252e-01  1.00000000e+00  1.00000000e+00  1.00000000e+00  1.00000000e+00
  1.00000000e+00  1.83470016e-03  1.40373012e-02  6.88426061e-02  2.32184421e-01
  4.67941342e-01  3.62312032e-01 -1.19332409e-01 -1.60854212e-01  1.14345648e+00
  6.89990956e-02  3.16423980e-01  7.44308252e-01  1.00000000e+00  1.00000000e+00
  1.00000000e+00  1.00000000e+00  1.00000000e+00  3.34945995e-02  2.34726947e-01
  8.13757318e-01  1.00000000e+00  3.34945995e-02  2.34726947e-01  8.13757318e-01
  1.00000000e+00  3.34945995e-02  2.34726947e-01  8.13757318e-01  1.00000000e+00
  3.34945995e-02  2.34726947e-01  8.13757318e-01  1.00000000e+00  3.34945995e-02
  2.34726947e-01  8.13757318e-01  1.00000000e+00  1.83470016e-03  1.40373012e-02
  6.88426061e-02  2.32184421e-01  4.67941342e-01  3.62312032e-01 -1.19332409e-01
 -1.60854212e-01  1.14345648e+00  6.89990956e-02  3.16423980e-01  7.44308252e-01
  1.00000000e+00  1.00000000e+00  1.00000000e+00  1.00000000e+00  1.00000000e+00
  3.34945995e-02  2.34726947e-01  8.13757318e-01  1.00000000e+00  3.34945995e-02
  2.34726947e-01  8.13757318e-01  1.00000000e+00  3.34945995e-02  2.34726947e-01
  8.13757318e-01  1.00000000e+00  3.34945995e-02  2.34726947e-01  8.13757318e-01
  1.00000000e+00  1.83470016e-03  1.40373012e-02  6.88426061e-02  2.32184421e-01
  4.67941342e-01  3.62312032e-01 -1.19332409e-01 -1.60854212e-01  1.14345648e+00
  6.89990956e-02  3.16423980e-01  7.44308252e-01  1.00000000e+00  1.00000000e+00
  1.00000000e+00  1.00000000e+00  1.00000000e+00  3.34945995e-02  2.34726947e-01
  8.13757318e-01  1.00000000e+00  3.34945995e-02  2.34726947e-01  8.13757318e-01
  1.00000000e+00  3.34945995e-02  2.34726947e-01  8.13757318e-01  1.00000000e+00
  1.83470016e-03  1.40373012e-02  6.88426061e-02  2.32184421e-01  4.67941342e-01
  3.62312032e-01 -1.19332409e-01 -1.60854212e-01  1.14345648e+00  6.89990956e-02
  3.16423980e-01  7.44308252e-01  1.00000000e+00  1.00000000e+00  1.00000000e+00
  1.00000000e+00  1.00000000e+00  3.34945995e-02  2.34726947e-01  8.13757318e-01
  1.00000000e+00  3.34945995e-02  2.34726947e-01  8.13757318e-01  1.00000000e+00
  1.83470016e-03  1.40373012e-02  6.88426061e-02  2.32184421e-01  4.67941342e-01
  3.62312032e-01 -1.19332409e-01 -1.60854212e-01  1.14345648e+00  6.89990956e-02
  3.16423980e-01  7.44308252e-01  1.00000000e+00  1.00000000e+00  1.00000000e+00
  1.00000000e+00  1.00000000e+00  3.34945995e-02  2.34726947e-01  8.13757318e-01
  1.00000000e+00  3.34945995e-02  2.34726947e-01  8.13757318e-01  1.00000000e+00
  1.83479944e-03  1.39949958e-02  6.85869792e-02  2.32240930e-01  4.69069858e-01
  3.60454891e-01 -1.14961023e-01 -1.69118034e-01  1.14585223e+00  6.75800232e-02
  3.23907111e-01  7.40895255e-01  1.00000000e+00  1.00000000e+00  1.00000000e+00
  1.00000000e+00  1.00000000e+00
Coordinates of each shell                  R   N=         432
  3.27861492e+00 -6.71006489e-01 -2.48591528e+00  3.27861492e+00 -6.71006489e-01
 -2.48591528e+00  3.27861492e+00 -6.71006489e-01 -2.48591528e+00  3.27861492e+00
 -6.71006489e-01 -2.48591528e+00  3.27861492e+00 -6.71006489e-01 -2.48591528e+00
  3.27861492e+00 -6.71006489e-01 -2.48591528e+00  3.27861492e+00 -6.71006489e-01
 -2.48591528e+00  3.27861492e+00 -6.71006489e-01 -2.48591528e+00  1.71678211e+00
 -1.72438935e+00 -3.30241753e-01  1.71678211e+00 -1.72438935e+00 -3.30241753e-01
  1.71678211e+00 -1.72438935e+00 -3.30241753e-01  1.71678211e+00 -1.72438935e+00
 -3.30241753e-01  1.71678211e+00 -1.72438935e+00 -3.30241753e-01  1.71678211e+00
 -1.72438935e+00 -3.30241753e-01  1.71678211e+00 -1.72438935e+00 -3.30241753e-01
  1.71678211e+00 -1.72438935e+00 -3.30241753e-01 -1.98256327e-01  1.62515060e-01
  8.17788417e-01 -1.98256327e-01  1.62515060e-01  8.17788417e-01 -1.98256327e-01
  1.62515060e-01  8.17788417e-01 -1.98256327e-01  1.62515060e-01  8.17788417e-01
 -1.98256327e-01  1.62515060e-01  8.17788417e-01 -1.98256327e-01  1.62515060e-01
  8.17788417e-01 -1.98256327e-01  1.62515060e-01  8.17788417e-01 -1.98256327e-01
  1.62515060e-01  8.17788417e-01 -1.85892104e+00 -1.25905183e+00  2.54499106e+00
 -1.85892104e+00 -1.25905183e+00  2.54499106e+00 -1.85892104e+00 -1.25905183e+00
  2.54499106e+00 -1.85892104e+00 -1.25905183e+00  2.54499106e+00 -1.85892104e+00
 -1.25905183e+00  2.54499106e+00 -1.85892104e+00 -1.25905183e+00  2.54499106e+00
 -1.85892104e+00 -1.25905183e+00  2.54499106e+00 -1.85892104e+00 -1.25905183e+00
  2.54499106e+00  5.83333202e+00 -4.43142011e-02 -2.16727237e+00  5.83333202e+00
 -4.43142011e-02 -2.16727237e+00  5.83333202e+00 -4.43142011e-02 -2.16727237e+00
  5.83333202e+00 -4.43142011e-02 -2.16727237e+00  5.83333202e+00 -4.43142011e-02
 -2.16727237e+00  5.83333202e+00 -4.43142011e-02 -2.16727237e+00  5.83333202e+00
 -4.43142011e-02 -2.16727237e+00  5.83333202e+00 -4.43142011e-02 -2.16727237e+00
  7.25542558e+00  9.42391676e-01 -4.16401424e+00  7.25542558e+00  9.42391676e-01
 -4.16401424e+00  7.25542558e+00  9.42391676e-01 -4.16401424e+00  7.25542558e+00
  9.42391676e-01 -4.16401424e+00  7.25542558e+00  9.42391676e-01 -4.16401424e+00
  7.25542558e+00  9.42391676e-01 -4.16401424e+00  7.25542558e+00  9.42391676e-01
 -4.16401424e+00  7.25542558e+00  9.42391676e-01 -4.16401424e+00  6.13876065e+00
  1.31958080e+00 -6.52606602e+00  6.13876065e+00  1.31958080e+00 -6.52606602e+00
  6.13876065e+00  1.31958080e+00 -6.52606602e+00  6.13876065e+00  1.31958080e+00
 -6.52606602e+00  6.13876065e+00  1.31958080e+00 -6.52606602e+00  6.13876065e+00
  1.31958080e+00 -6.52606602e+00  6.13876065e+00  1.31958080e+00 -6.52606602e+00
  6.13876065e+00  1.31958080e+00 -6.52606602e+00  3.59485383e+00  6.94571696e-01
 -6.87571463e+00  3.59485383e+00  6.94571696e-01 -6.87571463e+00  3.59485383e+00
  6.94571696e-01 -6.87571463e+00  3.59485383e+00  6.94571696e-01 -6.87571463e+00
  3.59485383e+00  6.94571696e-01 -6.87571463e+00  3.59485383e+00  6.94571696e-01
 -6.87571463e+00  3.59485383e+00  6.94571696e-01 -6.87571463e+00  3.59485383e+00
  6.94571696e-01 -6.87571463e+00  2.18618308e+00 -2.93964363e-01 -4.87484422e+00
  2.18618308e+00 -2.93964363e-01 -4.87484422e+00  2.18618308e+00 -2.93964363e-01
 -4.87484422e+00  2.18618308e+00 -2.93964363e-01 -4.87484422e+00  2.18618308e+00
 -2.93964363e-01 -4.87484422e+00  2.18618308e+00 -2.93964363e-01 -4.87484422e+00
  2.18618308e+00 -2.93964363e-01 -4.87484422e+00  2.18618308e+00 -2.93964363e-01
 -4.87484422e+00  6.72386369e+00 -3.38719014e-01 -3.37085864e-01  6.72386369e+00
 -3.38719014e-01 -3.37085864e-01  2.13527023e-01 -7.94555170e-01 -5.17472883e+00
  2.13527023e-01 -7.94555170e-01 -5.17472883e+00  9.23497375e+00  1.40958555e+00
 -3.87261132e+00  9.23497375e+00  1.40958555e+00 -3.87261132e+00  7.24032301e+00
  2.08264675e+00 -8.08287341e+00  7.24032301e+00  2.08264675e+00 -8.08287341e+00
  2.71052579e+00  9.65241263e-01 -8.71054452e+00  2.71052579e+00  9.65241263e-01
 -8.71054452e+00  1.10867484e+00  2.45427875e+00  2.03622292e+00  1.10867484e+00
  2.45427875e+00  2.03622292e+00  1.10867484e+00  2.45427875e+00  2.03622292e+00
  1.10867484e+00  2.45427875e+00  2.03622292e+00  1.10867484e+00  2.45427875e+00
  2.03622292e+00  1.10867484e+00  2.45427875e+00  2.03622292e+00  1.10867484e+00
  2.45427875e+00  2.03622292e+00  1.10867484e+00  2.45427875e+00  2.03622292e+00
 -1.41995036e+00  8.40478981e-01 -7.18808892e-01 -1.41995036e+00  8.40478981e-01
 -7.18808892e-01  2.33267529e+00  1.85131779e+00  3.60204190e+00  2.33267529e+00
  1.85131779e+00  3.60204190e+00 -2.70434931e-01  3.80359360e+00  2.78752753e+00
 -2.70434931e-01  3.80359360e+00  2.78752753e+00  2.28593909e+00  3.46000075e+00
  6.62583382e-01  2.28593909e+00  3.46000075e+00  6.62583382e-01 -4.03161384e+00
  1.22405286e-01  3.53097103e+00 -4.03161384e+00  1.22405286e-01  3.53097103e+00
 -4.03161384e+00  1.22405286e-01  3.53097103e+00 -4.03161384e+00  1.22405286e-01
  3.53097103e+00 -4.03161384e+00  1.22405286e-01  3.53097103e+00 -4.03161384e+00
  1.22405286e-01  3.53097103e+00 -4.03161384e+00  1.22405286e-01  3.53097103e+00
 -4.03161384e+00  1.22405286e-01  3.53097103e+00 -8.09326890e-01 -1.95912405e+00
  4.00437246e+00 -8.09326890e-01 -1.95912405e+00  4.00437246e+00  2.98097477e+00
 -2.39122298e+00  1.17820784e+00  2.98097477e+00 -2.39122298e+00  1.17820784e+00
  6.38168314e-01 -3.37164837e+00 -9.76970427e-01  6.38168314e-01 -3.37164837e+00
 -9.76970427e-01 -5.92089705e+00 -1.76552927e+00  4.70388954e+00 -5.92089705e+00
 -1.76552927e+00  4.70388954e+00 -5.92089705e+00 -1.76552927e+00  4.70388954e+00
 -5.92089705e+00 -1.76552927e+00  4.70388954e+00 -5.92089705e+00 -1.76552927e+00
  4.70388954e+00 -5.92089705e+00 -1.76552927e+00  4.70388954e+00 -5.92089705e+00
 -1.76552927e+00  4.70388954e+00 -5.92089705e+00 -1.76552927e+00  4.70388954e+00
 -4.94777949e+00  1.09449330e+00  1.94824632e+00 -4.94777949e+00  1.09449330e+00
  1.94824632e+00 -3.55664226e+00  1.57678199e+00  4.94544829e+00 -3.55664226e+00
  1.57678199e+00  4.94544829e+00 -8.17535110e+00 -5.12711927e-01  5.71548804e+00
 -8.17535110e+00 -5.12711927e-01  5.71548804e+00 -8.17535110e+00 -5.12711927e-01
  5.71548804e+00 -8.17535110e+00 -5.12711927e-01  5.71548804e+00 -8.17535110e+00
 -5.12711927e-01  5.71548804e+00 -8.17535110e+00 -5.12711927e-01  5.71548804e+00
 -8.17535110e+00 -5.12711927e-01  5.71548804e+00 -8.17535110e+00 -5.12711927e-01
  5.71548804e+00 -5.01449824e+00 -2.82175029e+00  6.24219464e+00 -5.01449824e+00
 -2.82175029e+00  6.24219464e+00 -6.48855673e+00 -3.14976536e+00  3.27218988e+00
 -6.48855673e+00 -3.14976536e+00  3.27218988e+00 -9.95167445e+00  5.10576841e-01
  6.50025819e+00 -9.95167445e+00  5.10576841e-01  6.50025819e+00 -9.95167445e+00
  5.10576841e-01  6.50025819e+00 -9.95167445e+00  5.10576841e-01  6.50025819e+00
 -9.95167445e+00  5.10576841e-01  6.50025819e+00 -9.95167445e+00  5.10576841e-01
  6.50025819e+00 -9.95167445e+00  5.10576841e-01  6.50025819e+00 -9.95167445e+00
  5.10576841e-01  6.50025819e+00
Total Energy                               R     -5.764205321777868e+02
Alpha Orbital Energies                     R   N=         298
 -1.43445832e+01 -1.43445344e+01 -1.02437243e+01 -1.02416605e+01 -1.02381786e+01
 -1.02345201e+01 -1.02091750e+01 -1.02024755e+01 -1.02022685e+01 -1.02007467e+01
 -1.02004002e+01 -1.02003142e+01 -1.01996106e+01 -1.01876182e+01 -9.31769594e-01
 -9.11506417e-01 -8.66320858e-01 -8.15300274e-01 -7.83291133e-01 -7.54286687e-01
 -7.43736575e-01 -6.96867204e-01 -6.58328069e-01 -6.19492457e-01 -6.10040347e-01
 -5.86545606e-01 -5.31860482e-01 -5.21738806e-01 -5.07338429e-01 -4.82331305e-01
 -4.73394725e-01 -4.70592937e-01 -4.56076571e-01 -4.39252041e-01 -4.33741207e-01
 -4.28786359e-01 -4.13456405e-01 -4.08141282e-01 -3.97583633e-01 -3.80868210e-01
 -3.78258758e-01 -3.67345500e-01 -3.60474246e-01 -3.53408626e-01 -3.48758985e-01
 -3.44138323e-01 -3.32205287e-01 -3.31100225e-01 -2.61624202e-01 -2.55698590e-01
 -2.44787992e-01 -2.22113419e-02 -1.88231947e-02 -9.41953794e-03  9.40632798e-04
  4.47569124e-03  1.39825541e-02  1.91400616e-02  2.16731883e-02  2.43780657e-02
  2.70600285e-02  3.67591748e-02  3.75658084e-02  3.98059158e-02  4.50575452e-02
  5.25972562e-02  6.09986936e-02  6.25690832e-02  6.78027615e-02  7.08777854e-02
  7.80848286e-02  8.36083864e-02  8.88458831e-02  8.96253568e-02  9.48119140e-02
  9.95880918e-02  1.09570340e-01  1.15099202e-01  1.19089380e-01  1.20534338e-01
  1.25828520e-01  1.26414394e-01  1.27696268e-01  1.39394836e-01  1.44201647e-01
  1.49198792e-01  1.53201036e-01  1.57430764e-01  1.64327927e-01  1.68370983e-01
  1.71832305e-01  1.76469483e-01  1.80551490e-01  1.87050133e-01  1.91470933e-01
  1.92698316e-01  1.94040728e-01  2.00535933e-01  2.05169878e-01  2.08415101e-01
  2.13688470e-01  2.21492778e-01  2.22058997e-01  2.24148585e-01  2.25733101e-01
  2.30971730e-01  2.34436704e-01  2.44854814e-01  2.47847724e-01  2.50240021e-01
  2.52759686e-01  2.55537235e-01  2.60184026e-01  2.64270866e-01  2.70941462e-01
  2.72174895e-01  2.73502034e-01  2.79376556e-01  2.83639167e-01  2.88242347e-01
  2.92150838e-01  2.99388014e-01  3.00224677e-01  3.03718574e-01  3.14965095e-01
  3.16997638e-01  3.30788225e-01  3.34903205e-01  3.46699257e-01  3.50477177e-01
  3.53471005e-01  3.54068955e-01  3.63702883e-01  3.75310570e-01  3.86245047e-01
  3.93278700e-01  4.01037158e-01  4.11901838e-01  4.63200318e-01  5.62760047e-01
  5.79591234e-01  6.01965208e-01  6.31423253e-01  6.40640129e-01  6.47157916e-01
  6.65803467e-01  6.70445644e-01  6.75389279e-01  6.92645878e-01  6.96318919e-01
  7.01807542e-01  7.14957279e-01  7.19972649e-01  7.29321438e-01  7.35863489e-01
  7.42753147e-01  7.47878108e-01  7.58260837e-01  7.64900433e-01  7.70738783e-01
  7.86967349e-01  7.94363045e-01  8.00330851e-01  8.24027899e-01  8.31919153e-01
  8.43701028e-01  8.66495172e-01  8.75701220e-01  8.88706870e-01  8.94850006e-01
  9.08145771e-01  9.16061996e-01  9.25902661e-01  9.35279770e-01  9.45157811e-01
  9.57803859e-01  9.59148038e-01  9.69428944e-01  9.77250191e-01  9.78403074e-01
  1.00888009e+00  1.01175958e+00  1.02453204e+00  1.02703846e+00  1.02986757e+00