Generated by Psi4
     FORCE                           RHF                       TESTBAS
Number of atoms                            I               16
Charge                                     I                0
Multiplicity                               I                1
Number of electrons                        I               56
Number of alpha electrons                  I               28
Number of beta electrons                   I               28
Number of basis functions                  I              151
Number of independent functions            I              151
Atomic numbers                             I   N=          16
           7           6           6           6           1           1
           6           1           1           1           1           8
           8           1           1           1
Nuclear charges                            R   N=          16
  7.00000000e+00  6.00000000e+00  6.00000000e+00  6.00000000e+00  1.00000000e+00
  1.00000000e+00  6.00000000e+00  1.00000000e+00  1.00000000e+00  1.00000000e+00
  1.00000000e+00  8.00000000e+00  8.00000000e+00  1.00000000e+00  1.00000000e+00
  1.00000000e+00
Current cartesian coordinates              R   N=          48
 -4.82570919e+00 -4.37292752e+00  5.95629182e-01 -3.88397828e+00 -1.77133692e+00
  6.85134052e-01 -1.06362878e+00 -1.41672324e+00  7.78469912e-02 -2.46931601e-01
  1.35593843e+00  2.16366446e-01 -6.53802855e-01 -2.15559958e+00 -1.81600260e+00
  8.50379582e-02 -2.53359933e+00  1.39453731e+00  2.54204461e+00  1.76074390e+00
 -3.77644986e-01 -6.25907883e-01  2.12913501e+00  2.11033142e+00 -1.36601649e+00
  2.50786156e+00 -1.10622505e+00 -4.29072545e+00 -1.02963084e+00  2.58111931e+00
 -5.03065575e+00 -6.51164260e-01 -6.34193846e-01  3.34895453e+00  4.21129132e+00
 -2.75046097e-01  4.02232021e+00  1.13200882e-01 -9.11784962e-01  1.96868199e+00
  5.33696956e+00  1.74837129e-01 -3.87603317e+00 -5.49019442e+00  1.84287042e+00
 -4.56517171e+00 -5.13773689e+00 -1.15165303e+00
Integer atomic weights                     I   N=          16
          14          12          12          12           1           1
          12           1           1           1           1          15
          15           1           1           1
Real atomic weights                        R   N=          16
  1.40030740e+01  1.20000000e+01  1.20000000e+01  1.20000000e+01  1.00782503e+00
  1.00782503e+00  1.20000000e+01  1.00782503e+00  1.00782503e+00  1.00782503e+00
  1.00782503e+00  1.59949146e+01  1.59949146e+01  1.00782503e+00  1.00782503e+00
  1.00782503e+00
Number of primitive shells                 I              155
Number of contracted shells                I               74
Pure/Cartesian d shells                    I                1
Pure/Cartesian f shells                    I                1
Highest angular momentum                   I                2
Largest degree of contraction              I                6
Shell types                                I   N=          74
           0           0           1           0           1           2
           0           1           0           0           1           0
           1           2           0           1           0           0
           1           0           1           2           0           1
           0           0           1           0           1           2
           0           1           0           0           0           0
           0           0           1           0           1           2
           0           1           0           0           0           0
           0           0           0           0           0           0
           1           0           1           2           0           1
           0           0           1           0           1           2
           0           1           0           0           0           0
           0           0
Number of primitives per shell             I   N=          74
           6           3           3           1           1           1
           1           1           6           3           3           1
           1           1           1           1           6           3
           3           1           1           1           1           1
           6           3           3           1           1           1
           1           1           3           1           3           1
           6           3           3           1           1           1
           1           1           3           1           3           1
           3           1           3           1           6           3
           3           1           1           1           1           1
           6           3           3           1           1           1
           1           1           3           1           3           1
           3           1
Shell to atom map                          I   N=          74
           1           1           1           1           1           1
           1           1           2           2           2           2
           2           2           2           2           3           3
           3           3           3           3           3           3
           4           4           4           4           4           4
           4           4           5           5           6           6
           7           7           7           7           7           7
           7           7           8           8           9           9
          10          10          11          11          12          12
          12          12          12          12          12          12
          13          13          13          13          13          13
          13          13          14          14          15          15
          16          16
Primitive exponents                        R   N=         155
  4.17351100e+03  6.27457900e+02  1.42902100e+02  4.02343300e+01  1.28202100e+01
  4.39043700e+00  1.16263580e+01  2.71628000e+00  7.72218000e-01  1.16263580e+01
  2.71628000e+00  7.72218000e-01  2.12031300e-01  2.12031300e-01  8.00000000e-01
  6.39000000e-02  6.39000000e-02  3.04752490e+03  4.57369510e+02  1.03948690e+02
  2.92101550e+01  9.28666300e+00  3.16392700e+00  7.86827240e+00  1.88128850e+00
  5.44249300e-01  7.86827240e+00  1.88128850e+00  5.44249300e-01  1.68714400e-01
  1.68714400e-01  8.00000000e-01  4.38000000e-02  4.38000000e-02  3.04752490e+03
  4.57369510e+02  1.03948690e+02  2.92101550e+01  9.28666300e+00  3.16392700e+00
  7.86827240e+00  1.88128850e+00  5.44249300e-01  7.86827240e+00  1.88128850e+00
  5.44249300e-01  1.68714400e-01  1.68714400e-01  8.00000000e-01  4.38000000e-02
  4.38000000e-02  3.04752490e+03  4.57369510e+02  1.03948690e+02  2.92101550e+01
  9.28666300e+00  3.16392700e+00  7.86827240e+00  1.88128850e+00  5.44249300e-01
  7.86827240e+00  1.88128850e+00  5.44249300e-01  1.68714400e-01  1.68714400e-01
  8.00000000e-01  4.38000000e-02  4.38000000e-02  1.87311370e+01  2.82539370e+00
  6.40121700e-01  1.61277800e-01  1.87311370e+01  2.82539370e+00  6.40121700e-01
  1.61277800e-01  3.04752490e+03  4.57369510e+02  1.03948690e+02  2.92101550e+01
  9.28666300e+00  3.16392700e+00  7.86827240e+00  1.88128850e+00  5.44249300e-01
  7.86827240e+00  1.88128850e+00  5.44249300e-01  1.68714400e-01  1.68714400e-01
  8.00000000e-01  4.38000000e-02  4.38000000e-02  1.87311370e+01  2.82539370e+00
  6.40121700e-01  1.61277800e-01  1.87311370e+01  2.82539370e+00  6.40121700e-01
  1.61277800e-01  1.87311370e+01  2.82539370e+00  6.40121700e-01  1.61277800e-01
  1.87311370e+01  2.82539370e+00  6.40121700e-01  1.61277800e-01  5.48467170e+03
  8.25234950e+02  1.88046960e+02  5.29645000e+01  1.68975700e+01  5.79963530e+00
  1.55396160e+01  3.59993360e+00  1.01376180e+00  1.55396160e+01  3.59993360e+00
  1.01376180e+00  2.70005800e-01  2.70005800e-01  8.00000000e-01  8.45000000e-02
  8.45000000e-02  5.48467170e+03  8.25234950e+02  1.88046960e+02  5.29645000e+01
  1.68975700e+01  5.79963530e+00  1.55396160e+01  3.59993360e+00  1.01376180e+00
  1.55396160e+01  3.59993360e+00  1.01376180e+00  2.70005800e-01  2.70005800e-01
  8.00000000e-01  8.45000000e-02  8.45000000e-02  1.87311370e+01  2.82539370e+00
  6.40121700e-01  1.61277800e-01  1.87311370e+01  2.82539370e+00  6.40121700e-01
  1.61277800e-01  1.87311370e+01  2.82539370e+00  6.40121700e-01  1.61277800e-01
Contraction coefficients                   R   N=         155
  1.83479944e-03  1.39949958e-02  6.85869792e-02  2.32240930e-01  4.69069858e-01
  3.60454891e-01 -1.14961023e-01 -1.69118034e-01  1.14585223e+00  6.75800232e-02
  3.23907111e-01  7.40895255e-01  1.00000000e+00  1.00000000e+00  1.00000000e+00
  1.00000000e+00  1.00000000e+00  1.83470016e-03  1.40373012e-02  6.88426061e-02
  2.32184421e-01  4.67941342e-01  3.62312032e-01 -1.19332409e-01 -1.60854212e-01
  1.14345648e+00  6.89990956e-02  3.16423980e-01  7.44308252e-01  1.00000000e+00
  1.00000000e+00  1.00000000e+00  1.00000000e+00  1.00000000e+00  1.83470016e-03
  1.40373012e-02  6.88426061e-02  2.32184421e-01  4.67941342e-01  3.62312032e-01
 -1.19332409e-01 -1.60854212e-01  1.14345648e+00  6.89990956e-02  3.16423980e-01
  7.44308252e-01  1.00000000e+00  1.00000000e+00  1.00000000e+00  1.00000000e+00
  1.00000000e+00  1.83470016e-03  1.40373012e-02  6.88426061e-02  2.32184421e-01
  4.67941342e-01  3.62312032e-01 -1.19332409e-01 -1.60854212e-01  1.14345648e+00
  6.89990956e-02  3.16423980e-01  7.44308252e-01  1.00000000e+00  1.00000000e+00
  1.00000000e+00  1.00000000e+00  1.00000000e+00  3.34945995e-02  2.34726947e-01
  8.13757318e-01  1.00000000e+00  3.34945995e-02  2.34726947e-01  8.13757318e-01
  1.00000000e+00  1.83470016e-03  1.40373012e-02  6.88426061e-02  2.32184421e-01
  4.67941342e-01  3.62312032e-01 -1.19332409e-01 -1.60854212e-01  1.14345648e+00
  6.89990956e-02  3.16423980e-01  7.44308252e-01  1.00000000e+00  1.00000000e+00
  1.00000000e+00  1.00000000e+00  1.00000000e+00  3.34945995e-02  2.34726947e-01
  8.13757318e-01  1.00000000e+00  3.34945995e-02  2.34726947e-01  8.13757318e-01
  1.00000000e+00  3.34945995e-02  2.34726947e-01  8.13757318e-01  1.00000000e+00
  3.34945995e-02  2.34726947e-01  8.13757318e-01  1.00000000e+00  1.83109981e-03
  1.39500985e-02  6.84450927e-02  2.32714275e-01  4.70192950e-01  3.58520862e-01
 -1.10777504e-01 -1.48026305e-01  1.13076704e+00  7.08742995e-02  3.39752798e-01
  7.27158595e-01  1.00000000e+00  1.00000000e+00  1.00000000e+00  1.00000000e+00
  1.00000000e+00  1.83109981e-03  1.39500985e-02  6.84450927e-02  2.32714275e-01
  4.70192950e-01  3.58520862e-01 -1.10777504e-01 -1.48026305e-01  1.13076704e+00
  7.08742995e-02  3.39752798e-01  7.27158595e-01  1.00000000e+00  1.00000000e+00
  1.00000000e+00  1.00000000e+00  1.00000000e+00  3.34945995e-02  2.34726947e-01
  8.13757318e-01  1.00000000e+00  3.34945995e-02  2.34726947e-01  8.13757318e-01
  1.00000000e+00  3.34945995e-02  2.34726947e-01  8.13757318e-01  1.00000000e+00
Coordinates of each shell                  R   N=         222
 -4.82570919e+00 -4.37292752e+00  5.95629182e-01 -4.82570919e+00 -4.37292752e+00
  5.95629182e-01 -4.82570919e+00 -4.37292752e+00  5.95629182e-01 -4.82570919e+00
 -4.37292752e+00  5.95629182e-01 -4.82570919e+00 -4.37292752e+00  5.95629182e-01
 -4.82570919e+00 -4.37292752e+00  5.95629182e-01 -4.82570919e+00 -4.37292752e+00
  5.95629182e-01 -4.82570919e+00 -4.37292752e+00  5.95629182e-01 -3.88397828e+00
 -1.77133692e+00  6.85134052e-01 -3.88397828e+00 -1.77133692e+00  6.85134052e-01
 -3.88397828e+00 -1.77133692e+00  6.85134052e-01 -3.88397828e+00 -1.77133692e+00
  6.85134052e-01 -3.88397828e+00 -1.77133692e+00  6.85134052e-01 -3.88397828e+00
 -1.77133692e+00  6.85134052e-01 -3.88397828e+00 -1.77133692e+00  6.85134052e-01
 -3.88397828e+00 -1.77133692e+00  6.85134052e-01 -1.06362878e+00 -1.41672324e+00
  7.78469912e-02 -1.06362878e+00 -1.41672324e+00  7.78469912e-02 -1.06362878e+00
 -1.41672324e+00  7.78469912e-02 -1.06362878e+00 -1.41672324e+00  7.78469912e-02
 -1.06362878e+00 -1.41672324e+00  7.78469912e-02 -1.06362878e+00 -1.41672324e+00
  7.78469912e-02 -1.06362878e+00 -1.41672324e+00  7.78469912e-02 -1.06362878e+00
 -1.41672324e+00  7.78469912e-02 -2.46931601e-01  1.35593843e+00  2.16366446e-01
 -2.46931601e-01  1.35593843e+00  2.16366446e-01 -2.46931601e-01  1.35593843e+00
  2.16366446e-01 -2.46931601e-01  1.35593843e+00  2.16366446e-01 -2.46931601e-01
  1.35593843e+00  2.16366446e-01 -2.46931601e-01  1.35593843e+00  2.16366446e-01
 -2.46931601e-01  1.35593843e+00  2.16366446e-01 -2.46931601e-01  1.35593843e+00
  2.16366446e-01 -6.53802855e-01 -2.15559958e+00 -1.81600260e+00 -6.53802855e-01
 -2.15559958e+00 -1.81600260e+00  8.50379582e-02 -2.53359933e+00  1.39453731e+00
  8.50379582e-02 -2.53359933e+00  1.39453731e+00  2.54204461e+00  1.76074390e+00
 -3.77644986e-01  2.54204461e+00  1.76074390e+00 -3.77644986e-01  2.54204461e+00
  1.76074390e+00 -3.77644986e-01  2.54204461e+00  1.76074390e+00 -3.77644986e-01
  2.54204461e+00  1.76074390e+00 -3.77644986e-01  2.54204461e+00  1.76074390e+00
 -3.77644986e-01  2.54204461e+00  1.76074390e+00 -3.77644986e-01  2.54204461e+00
  1.76074390e+00 -3.77644986e-01 -6.25907883e-01  2.12913501e+00  2.11033142e+00
 -6.25907883e-01  2.12913501e+00  2.11033142e+00 -1.36601649e+00  2.50786156e+00
 -1.10622505e+00 -1.36601649e+00  2.50786156e+00 -1.10622505e+00 -4.29072545e+00
 -1.02963084e+00  2.58111931e+00 -4.29072545e+00 -1.02963084e+00  2.58111931e+00
 -5.03065575e+00 -6.51164260e-01 -6.34193846e-01 -5.03065575e+00 -6.51164260e-01
 -6.34193846e-01  3.34895453e+00  4.21129132e+00 -2.75046097e-01  3.34895453e+00
  4.21129132e+00 -2.75046097e-01  3.34895453e+00  4.21129132e+00 -2.75046097e-01
  3.34895453e+00  4.21129132e+00 -2.75046097e-01  3.34895453e+00  4.21129132e+00
 -2.75046097e-01  3.34895453e+00  4.21129132e+00 -2.75046097e-01  3.34895453e+00
  4.21129132e+00 -2.75046097e-01  3.34895453e+00  4.21129132e+00 -2.75046097e-01
  4.02232021e+00  1.13200882e-01 -9.11784962e-01  4.02232021e+00  1.13200882e-01
 -9.11784962e-01  4.02232021e+00  1.13200882e-01 -9.11784962e-01  4.02232021e+00
  1.13200882e-01 -9.11784962e-01  4.02232021e+00  1.13200882e-01 -9.11784962e-01
  4.02232021e+00  1.13200882e-01 -9.11784962e-01  4.02232021e+00  1.13200882e-01
 -9.11784962e-01  4.02232021e+00  1.13200882e-01 -9.11784962e-01  1.96868199e+00
  5.33696956e+00  1.74837129e-01  1.96868199e+00  5.33696956e+00  1.74837129e-01
 -3.87603317e+00 -5.49019442e+00  1.84287042e+00 -3.87603317e+00 -5.49019442e+00
  1.84287042e+00 -4.56517171e+00 -5.13773689e+00 -1.15165303e+00 -4.56517171e+00
 -5.13773689e+00 -1.15165303e+00
Total Energy                               R     -3.630618938763623e+02
Alpha Orbital Energies                     R   N=         151
 -1.92154576e+01 -1.91559748e+01 -1.43308925e+01 -1.03371512e+01 -1.02279197e+01
 -1.02241171e+01 -1.02016275e+01 -1.11581685e+00 -1.03611377e+00 -8.94796469e-01
 -8.07844953e-01 -7.07436501e-01 -6.35463505e-01 -6.12992026e-01 -5.32194183e-01
 -5.19711356e-01 -4.91307360e-01 -4.67939712e-01 -4.42090216e-01 -4.36857678e-01
 -4.30698850e-01 -3.91084828e-01 -3.86747052e-01 -3.72364853e-01 -3.52345690e-01
 -3.33789440e-01 -2.90976048e-01 -2.49406666e-01 -2.12287961e-02 -1.02018842e-02
 -3.43399147e-03  2.40648022e-02  2.59837873e-02  3.36664262e-02  6.08256102e-02
  6.29917687e-02  6.48782264e-02  7.15161137e-02  8.72411058e-02  9.51092213e-02
  1.00335892e-01  1.11068959e-01  1.33637708e-01  1.35767736e-01  1.50678199e-01
  1.54266633e-01  1.65144100e-01  1.70380360e-01  1.90191548e-01  1.98206602e-01
  2.04467548e-01  2.11622853e-01  2.16703652e-01  2.21462940e-01  2.32660072e-01
  2.36457709e-01  2.46145877e-01  2.60767653e-01  2.72635789e-01  2.77257721e-01
  2.89933283e-01  2.98025993e-01  3.00722865e-01  3.06902514e-01  3.18602917e-01
  3.34747850e-01  3.43340929e-01  3.54752441e-01  3.89036875e-01  4.03991947e-01
  4.06048278e-01  4.85794078e-01  6.06393883e-01  6.34295250e-01  6.43846040e-01
  6.53574384e-01  6.85986565e-01  7.03799369e-01  7.23433328e-01  7.47739380e-01
  7.87732141e-01  8.36585635e-01  8.68044566e-01  8.78311107e-01  8.84252503e-01
  9.12839473e-01  9.21709774e-01  9.53152858e-01  9.85362874e-01  1.00904625e+00
  1.01976073e+00  1.07319691e+00  1.08243260e+00  1.10272827e+00  1.12113183e+00
  1.12958552e+00  1.14406887e+00  1.15627150e+00  1.16490711e+00  1.25127428e+00
  1.27736318e+00  1.31723590e+00  1.34812909e+00  1.37111135e+00  1.37395860e+00
  1.41375350e+00  1.41790094e+00  1.45345388e+00  1.52452586e+00  1.57955939e+00
  1.60364835e+00  1.66476925e+00  1.66904379e+00  1.72636119e+00  1.77712363e+00
  1.79928433e+00  1.80229194e+00  1.83824673e+00  1.88315712e+00  1.88742443e+00
  1.93715310e+00  1.97628082e+00  1.98512417e+00  1.99981511e+00  2.06233644e+00
  2.09536133e+00  2.10557317e+00  2.12601763e+00  2.21780760e+00  2.29641590e+00
  2.31433912e+00  2.37327958e+00  2.44156574e+00  2.45361292e+00  2.51799675e+00
  2.52665167e+00  2.61110032e+00  2.63278314e+00  2.69013728e+00  2.74704123e+00
  2.83315548e+00  2.89945553e+00  3.10231752e+00  3.13010111e+00  3.93896190e+00
  4.06651857e+00  4.18877299e+00  4.27570025e+00  4.39579215e+00  4.47770751e+00
  4.60644908e+00
Alpha MO coefficients                      R   N=       22801
 -1.49477375e-06 -8.17766497e-06 -2.21136239e-06  1.80137482e-06  7.18375552e-07
  5.59512603e-05  3.56604744e-05  2.08420929e-05 -5.73452697e-06 -2.86274469e-06
  5.50479792e-07 -1.64761477e-06  4.70433169e-06  9.50115529e-07 -8.21050617e-07
  1.54323136e-05  1.23478716e-04  7.88863469e-06 -2.74539259e-05  4.69434217e-06
  3.25219892e-05 -1.75487044e-05 -2.63304987e-06  3.73150045e-06 -3.19536205e-04
 -1.08543641e-04  6.24538189e-06  2.56921667e-05 -9.41515170e-06  6.45269189e-07
  3.98382419e-06 -5.95976860e-06  2.99621354e-06  8.48915485e-07  5.48690139e-03
  1.13950012e-03 -1.77664744e-04 -2.83272678e-04 -5.91679506e-06 -4.28408688e-05
  3.87608659e-05  2.26720783e-05 -6.24506548e-06  4.81508573e-04 -2.52670440e-04
  1.30377359e-04  7.34756890e-05  8.87633769e-07  2.30712639e-05 -1.16293154e-05
  3.47936791e-06 -3.19889425e-06  4.06074882e-06 -3.16388250e-03  3.60307202e-03
  1.06798032e-03 -7.03225759e-04  1.31336788e-05  1.37462492e-04 -2.72904769e-05
 -3.64389175e-05  1.98942297e-06 -7.59371642e-04 -6.39180417e-05  2.44475613e-04
  4.34989927e-05 -3.75937818e-05 -4.12097866e-05  1.93417291e-05 -4.94335788e-05
  9.74612450e-06  2.92440661e-06 -2.33796530e-03 -1.08724888e-03 -9.12727266e-04
  1.42791852e-04  1.07416784e-05 -2.69364288e-05  1.07492762e-05 -2.69497636e-05
 -3.97509543e-05  1.05906412e-04  1.83447271e-04  3.71795395e-04  1.53491681e-06
 -1.84183566e-04 -7.45306597e-04 -3.64778046e-04  1.28510160e-04 -5.05370175e-05
  2.42835241e-04 -1.10367810e-04  1.19107271e-04 -2.58818848e-06  2.09279675e-05
  1.85732258e-03  5.28853269e-04  3.22622477e-03  2.57880889e-04 -2.77242672e-06
  1.81951834e-04 -2.77223461e-06  1.81995282e-04  1.48594912e-05 -1.77662020e-05
  1.48621283e-05 -1.78049306e-05  9.92565359e-01  2.53772155e-02 -1.12605306e-03
 -2.20912600e-04  2.33019382e-04  1.50204139e-02  8.71038007e-04  5.27014745e-05
 -1.94138308e-04 -8.66143243e-03 -8.78942179e-03 -8.57745226e-03 -5.40957397e-05
  1.73193271e-05 -1.70477728e-05 -6.37282910e-03 -8.08637261e-04  4.97231581e-04
  2.44443490e-04 -2.64830863e-05  1.26957894e-04 -5.49113316e-06 -2.23895075e-07
  1.23610284e-06 -2.59673399e-04  8.07129420e-05  5.23027012e-05 -1.24102093e-05
  4.48245047e-05 -5.25760189e-05  9.48228696e-05  1.17479847e-05  1.61441804e-05
 -2.34777952e-05  1.70035219e-03 -1.08874880e-04  5.12892964e-04  8.53435307e-05
  3.89384634e-04 -6.18427702e-04 -4.08184843e-06 -1.54548020e-05 -4.08524083e-06
 -1.53984131e-05 -1.76298206e-06 -4.86053490e-06 -1.75365685e-06 -3.32277324e-06
  8.57410990e-09  3.96914122e-05 -4.36487551e-06  2.20082874e-05  3.61941405e-06
 -1.96579963e-06 -2.80071278e-06 -8.91440462e-06 -2.25262546e-06 -2.26928817e-06
  1.42992123e-06  1.78179297e-04  2.65092090e-04 -5.28420004e-05 -6.72387565e-05
  3.13192566e-07 -5.68556882e-06  8.60239685e-06  4.50950511e-06 -1.44370563e-06
  1.81694658e-04  1.88563949e-04  3.22483091e-05 -3.96199349e-05  8.01611418e-06
  5.54852378e-07  5.26597884e-06 -1.86042909e-06 -9.93332327e-07 -1.88100656e-07
  3.21351715e-03  5.78285090e-04 -2.22535180e-04 -1.59309212e-04  1.49827086e-05
  3.83915823e-05  5.91065052e-06 -1.28408858e-05 -2.86289291e-06 -6.10434241e-04
  2.27393567e-04 -4.50332037e-05 -5.77021722e-05  5.59713258e-05  5.29438081e-06
  3.43596999e-05  1.10035694e-05 -4.51512751e-06 -6.44650849e-06  1.33045142e-03
  1.84961387e-03  1.92495663e-03 -1.98879779e-04 -5.16551369e-06  1.44716756e-05
  1.45291323e-05  2.91664527e-05  7.91049107e-08  1.47341941e-05 -2.39351252e-04
 -4.41521378e-04  3.20310758e-06 -4.43928800e-05 -1.56902268e-06 -1.00926958e-05
  5.15897737e-05  1.63432728e-05 -1.13049651e-05 -5.80558408e-03  2.09549266e-05
  2.25491216e-03  2.60383572e-04  1.45100862e-06  2.23403836e-04  1.48414050e-06
  2.23495669e-04 -9.04437112e-06  3.94184908e-04  1.53056446e-04 -1.24861378e-04
 -4.98834304e-05  1.98282842e-04 -6.89734796e-04  9.28017163e-04  2.67751951e-04
 -3.04313359e-04 -3.62173624e-04 -1.98038031e-04  2.62875021e-04  6.48798775e-05
 -8.56771207e-05  3.27454158e-03  4.05545363e-04 -2.27642020e-03 -3.60799133e-04
 -1.39645438e-05  1.27668271e-04 -1.39297920e-05  1.27677651e-04 -8.29686396e-06
  6.70997993e-05 -8.29389071e-06  6.70385680e-05  6.15765269e-05  1.16343316e-04
 -7.30961772e-06  1.78620487e-05  3.77646968e-06 -5.46947166e-04  8.46262821e-05
  1.02246759e-04 -7.41639637e-06  7.85024147e-05 -6.80985801e-05  4.86781793e-05
  7.55333663e-05  1.97888183e-06 -3.37460067e-05  6.68561693e-04  6.98668200e-05
  3.91507916e-05 -1.15304512e-05  9.92572654e-01  2.52498552e-02 -8.63826208e-04
  9.95457343e-04  3.15694279e-04  1.56924457e-02  9.07740295e-05 -2.97136953e-04
 -5.58104724e-05 -8.55248210e-03 -8.55571743e-03 -8.63183333e-03 -8.91407551e-05
 -3.42345799e-05  3.22046266e-05 -6.79963410e-03  2.64782725e-04  2.60452349e-04
 -3.02726001e-05  3.32066514e-05 -8.52741385e-05  6.40806693e-06 -6.39681473e-05
  6.40889182e-06 -6.39334573e-05  9.92664732e-01  3.46220914e-02  1.19632067e-03
 -2.65520633e-05 -2.78435009e-04  4.26485491e-03 -9.26344669e-04 -1.24295919e-04
  1.98547431e-04 -8.32468179e-03 -8.39024002e-03 -8.28923348e-03 -6.95463753e-05
  1.23830626e-06  2.27315665e-06 -2.74847358e-03  6.74056884e-04 -3.75505462e-04
 -1.99319165e-04 -2.11447349e-05  2.08102307e-05 -9.08081312e-05 -2.52194932e-04
 -8.78782690e-06  4.40135498e-04  2.53185156e-04 -1.26350749e-04 -7.31294912e-05
 -2.90827432e-05  1.19643790e-04 -7.23609333e-05  5.70518851e-05 -5.43229114e-06
  1.32986396e-05 -1.60884144e-03 -1.69850537e-03 -1.74804815e-03  1.85106674e-04
  4.25715517e-06  7.60409952e-05  2.98508221e-05  4.85294492e-05 -1.15617420e-06
 -4.74017674e-04  5.08071670e-05 -3.06803303e-04 -4.78213137e-05 -2.90920920e-05
 -5.03258060e-05 -5.32422392e-07 -3.28925270e-05  3.90488077e-06  7.03511283e-07
  3.56997177e-03 -7.97634150e-05  1.01536598e-03  1.37883739e-04 -1.19869959e-05
 -6.51362657e-05 -4.79005341e-06 -6.67559628e-06  3.15671561e-07  4.84140736e-04
 -3.44509739e-05 -2.27353482e-04 -1.88314954e-05 -1.17249701e-05  1.42097541e-05
 -2.10807097e-05  9.47764979e-06 -1.52305128e-06  2.69586812e-06 -3.33313210e-03
 -1.80117947e-03 -1.95974628e-04  3.91377389e-04  7.68138469e-06 -7.01493068e-05
  7.68053532e-06 -7.01397320e-05  1.92785994e-06  1.24130144e-05 -6.08721133e-09
  6.03413737e-06  7.09097776e-07 -1.92024466e-04  8.20459674e-06  8.38315519e-05
  7.97703342e-06 -3.40558153e-06 -4.84540916e-06  4.71321916e-06 -1.50412076e-06
  2.11853875e-06 -1.02240329e-06  2.86968883e-03 -5.47439978e-04  6.09302020e-05
  1.33116086e-04 -9.64221013e-06 -2.68157153e-05 -9.63964902e-06 -2.68158840e-05
 -4.36380854e-05  1.96913325e-04 -4.36383843e-05  1.96925755e-04  2.09966338e-06
  8.47035240e-06 -1.21791024e-06 -1.09021739e-07  2.67322221e-07 -6.04036456e-05
  6.74783486e-06 -6.91098037e-06 -2.36543964e-06  7.80498851e-06  9.02552953e-06
  2.79375943e-06  3.36201631e-06 -9.91022727e-07  1.01419778e-07  1.52074535e-04
 -1.13582739e-04 -6.08666842e-05  1.89680921e-05 -2.59346281e-06 -1.36397382e-05
  9.39154018e-07 -1.79160235e-06 -4.26346234e-07  1.06190394e-04 -3.44798003e-05
  3.11452108e-05  1.15903333e-05 -3.95048916e-06 -7.01413327e-06 -5.78743419e-06
 -4.92886429e-06 -1.15533926e-06  1.01188571e-06 -2.15378814e-05  3.86339639e-06
 -3.24687573e-05 -4.71020623e-06 -7.41117598e-07 -7.71337788e-06  2.64752110e-04
 -1.39782239e-04  2.64752501e-04 -1.39785138e-04  5.63401687e-06  1.49435010e-05
  8.37676079e-06  5.18948775e-06 -1.31436889e-06  4.29030485e-05 -1.63280983e-05
  6.96568130e-05  1.19340984e-05  5.73991325e-07  3.33347199e-05  1.28604547e-05
 -5.24305385e-07  3.29955052e-06  2.85246897e-06  5.51469943e-04  8.51615257e-05
  1.90018913e-04  2.73768426e-06 -2.58249514e-05 -7.20723099e-05 -4.32579617e-05
 -3.77905269e-05  5.50195331e-06  2.51645587e-04  2.05614012e-04  4.65532969e-04
  7.52055402e-06 -2.12891799e-05 -5.46498582e-05 -2.53206604e-05  2.12509352e-05
  1.76990019e-06 -9.05007721e-06  5.43393272e-03  1.39544975e-03  4.95724525e-04
 -2.62702129e-04 -2.74720690e-06  2.98997788e-05 -5.08141742e-08 -2.11867197e-05
 -2.48039043e-06 -8.28115500e-04 -3.27824583e-04 -7.06053700e-04 -7.67006775e-06
  1.13859032e-06 -2.38091967e-05 -2.72253374e-05 -1.79418821e-05 -1.03262997e-05
  4.94194771e-06 -1.22022439e-02  1.57099558e-03 -1.74345553e-03 -5.66833745e-04
  8.76086556e-04 -3.03047339e-04 -1.36625374e-04 -1.33921921e-05  2.98794897e-05
  5.75990262e-03  2.21419051e-03  2.31119503e-04 -4.82383872e-04 -3.94380613e-04
 -1.48421734e-04 -1.49907443e-04 -3.41841537e-05  6.41564069e-05  6.41757998e-06
  2.74923829e-02  4.63658741e-03 -1.91634467e-03 -1.29257396e-03  6.33720000e-05
 -4.69956630e-04  6.33817872e-05 -4.70096947e-04  9.93201715e-01  4.95066356e-02
  8.06436533e-04  4.55535522e-04 -1.31890058e-04 -1.80453531e-02  2.80764067e-03
 -7.96209686e-04 -7.39570708e-04 -8.45789164e-03 -8.04051209e-03 -8.92652321e-03
 -2.78182526e-04 -1.71410325e-04  1.91563791e-04 -2.38966489e-02  6.89070386e-03
  5.26079517e-04 -1.52314330e-03 -1.16339325e-04 -8.67699862e-04 -1.16342491e-04
 -8.67982617e-04 -1.60025174e-05 -2.68205907e-04 -1.60035221e-05 -2.68149563e-04
 -8.14107550e-06  3.13107764e-04  6.85174151e-05  3.80438061e-05 -1.12897924e-05
 -3.60278363e-04 -3.86786892e-04  7.95197194e-04  1.82516303e-04  2.64732928e-04
 -4.84632238e-04  3.01705200e-04 -2.48107237e-04 -1.90155710e-05 -4.99025836e-05
  7.38664772e-03 -3.09381306e-03 -1.11539502e-03  5.80435669e-04 -1.20724044e-04
  5.06065707e-04 -1.80548826e-05 -5.10201684e-06  3.54841645e-06 -2.68262984e-03
  6.60338357e-04 -9.77481376e-04 -2.66730631e-04  2.75522411e-04  7.91204671e-05
  4.18604886e-04  1.72658681e-04  6.40762456e-05 -8.87375759e-05  5.72718935e-03
 -2.59613876e-03  1.86366607e-03  8.16197661e-04  1.32579124e-04 -2.67606174e-03
  1.73655449e-05 -9.37487794e-05  1.73704547e-05 -9.38059085e-05 -4.08391808e-05
 -1.69419273e-04 -4.82356573e-05 -2.04824915e-05  8.68562018e-06  1.12042108e-03
  5.12114875e-04  3.99896188e-04 -7.07378557e-05 -8.24474406e-05 -4.28494891e-05
 -8.52398211e-05  6.91572367e-05  8.11564398e-06 -1.05155721e-05  2.96881052e-03
  8.97624809e-04  7.23435466e-05 -1.98010361e-04 -1.19626245e-04  6.77585470e-05
 -5.93730829e-05 -7.70796774e-05  4.59821660e-06 -1.48668201e-03 -3.54224004e-04
  7.37416311e-04  1.68208426e-04 -2.56139114e-05 -2.67534560e-05 -1.38473642e-05
 -4.37625969e-05 -2.38397560e-06  8.50413150e-06 -2.87280053e-03 -8.79921238e-04
  4.87229534e-04  2.59701464e-04  3.89651611e-03 -2.72286273e-04  3.97120216e-05
 -9.42465976e-05 -2.02378502e-05  6.89809159e-03  7.31102478e-04  3.04514684e-03
  1.90405411e-04 -2.00826309e-04 -3.65820649e-04 -1.60541719e-04  8.45360903e-06
  1.32289738e-05 -3.06322403e-05  1.38141175e-02  1.25517013e-03  4.11253820e-03
  1.95477856e-04  9.93128218e-01  5.09731216e-02  1.43743884e-04  1.54051277e-04
 -1.49128829e-05 -2.52663300e-02 -1.79134219e-03  1.41557611e-03  5.78578788e-04
 -8.93670782e-03 -8.92410786e-03 -8.69674510e-03 -3.25160886e-05  6.40059211e-05
 -2.55220158e-05 -1.74274670e-02 -1.64007719e-04  2.37142676e-03  3.16999687e-04
 -1.69844408e-04 -3.90564646e-04 -1.69873993e-04 -3.90614074e-04 -1.15555454e-03
 -3.67320680e-04  1.56006619e-04 -1.88628015e-05 -3.81052234e-05  5.82885291e-03
 -4.99574900e-03 -2.11605772e-03  9.00381552e-04 -4.84887815e-04 -1.62860898e-04
 -1.77224888e-04 -4.39482428e-05  8.05401050e-05  9.99890446e-06  4.11179839e-03
 -1.40597990e-03 -4.28428862e-05  3.18269666e-04  2.75860199e-05  4.22464161e-03
  2.75406682e-05  4.22451494e-03  3.55414521e-05 -3.27724781e-04  3.55421348e-05
 -3.27862657e-04 -4.51093439e-05 -2.59864786e-04  3.56332195e-06  9.86741265e-05
  1.07852990e-05  1.14473607e-03  2.91759639e-04 -8.19331401e-04 -1.63474733e-04
 -1.19384684e-04 -9.80411485e-07 -2.11079389e-04 -2.25332360e-05 -2.95304167e-05
  3.50023371e-05  1.38415439e-04  2.54592122e-04 -4.62925338e-04 -1.13010220e-04
  4.14928851e-06 -1.86175942e-05 -3.33824365e-05 -1.96372776e-05  5.36653829e-06
 -1.83020215e-04  6.55951454e-04  5.28953858e-04 -8.87098623e-05 -7.18706052e-05
  2.19999191e-04 -7.18629952e-05  6.02717018e-08 -1.16495456e-06  4.01761020e-05
  1.27508113e-04  1.10501484e-04  5.19087727e-04  3.57743362e-05 -4.95922816e-05
  9.62216031e-04 -3.27678603e-05 -5.71028825e-04 -3.27727665e-05 -5.70936054e-04
 -1.13614061e-04 -1.64661809e-04 -6.55468571e-05 -1.49302127e-04 -2.49212027e-06
  3.40186086e-03  9.10004337e-04  1.39431787e-03 -4.52733695e-05 -1.22019396e-04
 -4.62457745e-04  4.79685547e-06 -1.14555671e-04  2.24418002e-05 -3.82804386e-05
  6.37709807e-03  1.16533420e-03  1.47241975e-03 -9.49022651e-05  9.93117579e-01
  5.01105690e-02 -7.37237796e-05 -3.54144312e-04 -2.47180281e-05 -2.15392925e-02