Generated by Psi4
     FORCE                           RHF                       TESTBAS
Number of atoms                            I               12
Charge                                     I                0
Multiplicity                               I                1
Number of electrons                        I               46
Number of alpha electrons                  I               23
Number of beta electrons                   I               23
Number of basis functions                  I              126
Number of independent functions            I              126
Atomic numbers                             I   N=          12
           6           6           8           8           6           1
           1           6           1           1           1           1
Nuclear charges                            R   N=          12
  6.00000000e+00  6.00000000e+00  8.00000000e+00  8.00000000e+00  6.00000000e+00
  1.00000000e+00  1.00000000e+00  6.00000000e+00  1.00000000e+00  1.00000000e+00
  1.00000000e+00  1.00000000e+00
Current cartesian coordinates              R   N=          36
 -1.71531827e+00 -1.10231841e+00  1.22823870e+00  9.58236142e-01 -1.18641524e+00
  1.50455120e-01  1.51951852e+00  1.10061309e+00 -9.04260567e-01  2.44007582e+00
 -2.91583538e+00  1.71118517e-01 -2.88331534e+00  1.23334822e+00 -2.65412756e-02
 -1.56567880e+00 -8.94150938e-01  3.28747238e+00 -2.69296757e+00 -2.88095608e+00
  8.51234017e-01 -5.39663810e-01  2.86559592e+00 -5.62821212e-01 -4.26552647e+00
  2.21604024e+00  1.15528204e+00 -3.81249936e+00  7.12028995e-01 -1.80223555e+00
 -6.31500626e-02  4.10479117e+00  1.02858974e+00 -6.70539806e-01  3.99727531e+00
 -2.28327921e+00
Integer atomic weights                     I   N=          12
          12          12          15          15          12           1
           1          12           1           1           1           1
Real atomic weights                        R   N=          12
  1.20000000e+01  1.20000000e+01  1.59949146e+01  1.59949146e+01  1.20000000e+01
  1.00782503e+00  1.00782503e+00  1.20000000e+01  1.00782503e+00  1.00782503e+00
  1.00782503e+00  1.00782503e+00
Number of primitive shells                 I              126
Number of contracted shells                I               60
Pure/Cartesian d shells                    I                1
Pure/Cartesian f shells                    I                1
Highest angular momentum                   I                2
Largest degree of contraction              I                6
Shell types                                I   N=          60
           0           0           1           0           1           2
           0           1           0           0           1           0
           1           2           0           1           0           0
           1           0           1           2           0           1
           0           0           1           0           1           2
           0           1           0           0           1           0
           1           2           0           1           0           0
           0           0           0           0           1           0
           1           2           0           1           0           0
           0           0           0           0           0           0
Number of primitives per shell             I   N=          60
           6           3           3           1           1           1
           1           1           6           3           3           1
           1           1           1           1           6           3
           3           1           1           1           1           1
           6           3           3           1           1           1
           1           1           6           3           3           1
           1           1           1           1           3           1
           3           1           6           3           3           1
           1           1           1           1           3           1
           3           1           3           1           3           1
Shell to atom map                          I   N=          60
           1           1           1           1           1           1
           1           1           2           2           2           2
           2           2           2           2           3           3
           3           3           3           3           3           3
           4           4           4           4           4           4
           4           4           5           5           5           5
           5           5           5           5           6           6
           7           7           8           8           8           8
           8           8           8           8           9           9
          10          10          11          11          12          12
Primitive exponents                        R   N=         126
  3.04752490e+03  4.57369510e+02  1.03948690e+02  2.92101550e+01  9.28666300e+00
  3.16392700e+00  7.86827240e+00  1.88128850e+00  5.44249300e-01  7.86827240e+00
  1.88128850e+00  5.44249300e-01  1.68714400e-01  1.68714400e-01  8.00000000e-01
  4.38000000e-02  4.38000000e-02  3.04752490e+03  4.57369510e+02  1.03948690e+02
  2.92101550e+01  9.28666300e+00  3.16392700e+00  7.86827240e+00  1.88128850e+00
  5.44249300e-01  7.86827240e+00  1.88128850e+00  5.44249300e-01  1.68714400e-01
  1.68714400e-01  8.00000000e-01  4.38000000e-02  4.38000000e-02  5.48467170e+03
  8.25234950e+02  1.88046960e+02  5.29645000e+01  1.68975700e+01  5.79963530e+00
  1.55396160e+01  3.59993360e+00  1.01376180e+00  1.55396160e+01  3.59993360e+00
  1.01376180e+00  2.70005800e-01  2.70005800e-01  8.00000000e-01  8.45000000e-02
  8.45000000e-02  5.48467170e+03  8.25234950e+02  1.88046960e+02  5.29645000e+01
  1.68975700e+01  5.79963530e+00  1.55396160e+01  3.59993360e+00  1.01376180e+00
  1.55396160e+01  3.59993360e+00  1.01376180e+00  2.70005800e-01  2.70005800e-01
  8.00000000e-01  8.45000000e-02  8.45000000e-02  3.04752490e+03  4.57369510e+02
  1.03948690e+02  2.92101550e+01  9.28666300e+00  3.16392700e+00  7.86827240e+00
  1.88128850e+00  5.44249300e-01  7.86827240e+00  1.88128850e+00  5.44249300e-01
  1.68714400e-01  1.68714400e-01  8.00000000e-01  4.38000000e-02  4.38000000e-02
  1.87311370e+01  2.82539370e+00  6.40121700e-01  1.61277800e-01  1.87311370e+01
  2.82539370e+00  6.40121700e-01  1.61277800e-01  3.04752490e+03  4.57369510e+02
  1.03948690e+02  2.92101550e+01  9.28666300e+00  3.16392700e+00  7.86827240e+00
  1.88128850e+00  5.44249300e-01  7.86827240e+00  1.88128850e+00  5.44249300e-01
  1.68714400e-01  1.68714400e-01  8.00000000e-01  4.38000000e-02  4.38000000e-02
  1.87311370e+01  2.82539370e+00  6.40121700e-01  1.61277800e-01  1.87311370e+01
  2.82539370e+00  6.40121700e-01  1.61277800e-01  1.87311370e+01  2.82539370e+00
  6.40121700e-01  1.61277800e-01  1.87311370e+01  2.82539370e+00  6.40121700e-01
  1.61277800e-01
Contraction coefficients                   R   N=         126
  1.83470016e-03  1.40373012e-02  6.88426061e-02  2.32184421e-01  4.67941342e-01
  3.62312032e-01 -1.19332409e-01 -1.60854212e-01  1.14345648e+00  6.89990956e-02
  3.16423980e-01  7.44308252e-01  1.00000000e+00  1.00000000e+00  1.00000000e+00
  1.00000000e+00  1.00000000e+00  1.83470016e-03  1.40373012e-02  6.88426061e-02
  2.32184421e-01  4.67941342e-01  3.62312032e-01 -1.19332409e-01 -1.60854212e-01
  1.14345648e+00  6.89990956e-02  3.16423980e-01  7.44308252e-01  1.00000000e+00
  1.00000000e+00  1.00000000e+00  1.00000000e+00  1.00000000e+00  1.83109981e-03
  1.39500985e-02  6.84450927e-02  2.32714275e-01  4.70192950e-01  3.58520862e-01
 -1.10777504e-01 -1.48026305e-01  1.13076704e+00  7.08742995e-02  3.39752798e-01
  7.27158595e-01  1.00000000e+00  1.00000000e+00  1.00000000e+00  1.00000000e+00
  1.00000000e+00  1.83109981e-03  1.39500985e-02  6.84450927e-02  2.32714275e-01
  4.70192950e-01  3.58520862e-01 -1.10777504e-01 -1.48026305e-01  1.13076704e+00
  7.08742995e-02  3.39752798e-01  7.27158595e-01  1.00000000e+00  1.00000000e+00
  1.00000000e+00  1.00000000e+00  1.00000000e+00  1.83470016e-03  1.40373012e-02
  6.88426061e-02  2.32184421e-01  4.67941342e-01  3.62312032e-01 -1.19332409e-01
 -1.60854212e-01  1.14345648e+00  6.89990956e-02  3.16423980e-01  7.44308252e-01
  1.00000000e+00  1.00000000e+00  1.00000000e+00  1.00000000e+00  1.00000000e+00
  3.34945995e-02  2.34726947e-01  8.13757318e-01  1.00000000e+00  3.34945995e-02
  2.34726947e-01  8.13757318e-01  1.00000000e+00  1.83470016e-03  1.40373012e-02
  6.88426061e-02  2.32184421e-01  4.67941342e-01  3.62312032e-01 -1.19332409e-01
 -1.60854212e-01  1.14345648e+00  6.89990956e-02  3.16423980e-01  7.44308252e-01
  1.00000000e+00  1.00000000e+00  1.00000000e+00  1.00000000e+00  1.00000000e+00
  3.34945995e-02  2.34726947e-01  8.13757318e-01  1.00000000e+00  3.34945995e-02
  2.34726947e-01  8.13757318e-01  1.00000000e+00  3.34945995e-02  2.34726947e-01
  8.13757318e-01  1.00000000e+00  3.34945995e-02  2.34726947e-01  8.13757318e-01
  1.00000000e+00
Coordinates of each shell                  R   N=         180
 -1.71531827e+00 -1.10231841e+00  1.22823870e+00 -1.71531827e+00 -1.10231841e+00
  1.22823870e+00 -1.71531827e+00 -1.10231841e+00  1.22823870e+00 -1.71531827e+00
 -1.10231841e+00  1.22823870e+00 -1.71531827e+00 -1.10231841e+00  1.22823870e+00
 -1.71531827e+00 -1.10231841e+00  1.22823870e+00 -1.71531827e+00 -1.10231841e+00
  1.22823870e+00 -1.71531827e+00 -1.10231841e+00  1.22823870e+00  9.58236142e-01
 -1.18641524e+00  1.50455120e-01  9.58236142e-01 -1.18641524e+00  1.50455120e-01
  9.58236142e-01 -1.18641524e+00  1.50455120e-01  9.58236142e-01 -1.18641524e+00
  1.50455120e-01  9.58236142e-01 -1.18641524e+00  1.50455120e-01  9.58236142e-01
 -1.18641524e+00  1.50455120e-01  9.58236142e-01 -1.18641524e+00  1.50455120e-01
  9.58236142e-01 -1.18641524e+00  1.50455120e-01  1.51951852e+00  1.10061309e+00
 -9.04260567e-01  1.51951852e+00  1.10061309e+00 -9.04260567e-01  1.51951852e+00
  1.10061309e+00 -9.04260567e-01  1.51951852e+00  1.10061309e+00 -9.04260567e-01
  1.51951852e+00  1.10061309e+00 -9.04260567e-01  1.51951852e+00  1.10061309e+00
 -9.04260567e-01  1.51951852e+00  1.10061309e+00 -9.04260567e-01  1.51951852e+00
  1.10061309e+00 -9.04260567e-01  2.44007582e+00 -2.91583538e+00  1.71118517e-01
  2.44007582e+00 -2.91583538e+00  1.71118517e-01  2.44007582e+00 -2.91583538e+00
  1.71118517e-01  2.44007582e+00 -2.91583538e+00  1.71118517e-01  2.44007582e+00
 -2.91583538e+00  1.71118517e-01  2.44007582e+00 -2.91583538e+00  1.71118517e-01
  2.44007582e+00 -2.91583538e+00  1.71118517e-01  2.44007582e+00 -2.91583538e+00
  1.71118517e-01 -2.88331534e+00  1.23334822e+00 -2.65412756e-02 -2.88331534e+00
  1.23334822e+00 -2.65412756e-02 -2.88331534e+00  1.23334822e+00 -2.65412756e-02
 -2.88331534e+00  1.23334822e+00 -2.65412756e-02 -2.88331534e+00  1.23334822e+00
 -2.65412756e-02 -2.88331534e+00  1.23334822e+00 -2.65412756e-02 -2.88331534e+00
  1.23334822e+00 -2.65412756e-02 -2.88331534e+00  1.23334822e+00 -2.65412756e-02
 -1.56567880e+00 -8.94150938e-01  3.28747238e+00 -1.56567880e+00 -8.94150938e-01
  3.28747238e+00 -2.69296757e+00 -2.88095608e+00  8.51234017e-01 -2.69296757e+00
 -2.88095608e+00  8.51234017e-01 -5.39663810e-01  2.86559592e+00 -5.62821212e-01
 -5.39663810e-01  2.86559592e+00 -5.62821212e-01 -5.39663810e-01  2.86559592e+00
 -5.62821212e-01 -5.39663810e-01  2.86559592e+00 -5.62821212e-01 -5.39663810e-01
  2.86559592e+00 -5.62821212e-01 -5.39663810e-01  2.86559592e+00 -5.62821212e-01
 -5.39663810e-01  2.86559592e+00 -5.62821212e-01 -5.39663810e-01  2.86559592e+00
 -5.62821212e-01 -4.26552647e+00  2.21604024e+00  1.15528204e+00 -4.26552647e+00
  2.21604024e+00  1.15528204e+00 -3.81249936e+00  7.12028995e-01 -1.80223555e+00
 -3.81249936e+00  7.12028995e-01 -1.80223555e+00 -6.31500626e-02  4.10479117e+00
  1.02858974e+00 -6.31500626e-02  4.10479117e+00  1.02858974e+00 -6.70539806e-01
  3.99727531e+00 -2.28327921e+00 -6.70539806e-01  3.99727531e+00 -2.28327921e+00
Total Energy                               R     -3.065062812188689e+02
Alpha Orbital Energies                     R   N=         126
 -1.92047719e+01 -1.91479238e+01 -1.03253700e+01 -1.02651250e+01 -1.02206287e+01
 -1.02203571e+01 -1.11101122e+00 -1.03261377e+00 -8.19145147e-01 -7.43982221e-01
 -6.40918995e-01 -5.71769752e-01 -5.30561893e-01 -5.11479429e-01 -4.64665498e-01
 -4.50638643e-01 -4.31963308e-01 -4.15961824e-01 -3.88954454e-01 -3.68090445e-01
 -3.62016629e-01 -3.07648267e-01 -2.79627025e-01 -6.35903757e-03 -1.73813492e-03
  1.34916916e-02  2.00938229e-02  2.64044838e-02  5.35601471e-02  6.07779468e-02
  6.51558478e-02  7.09985502e-02  7.60699093e-02  9.42879037e-02  1.06546530e-01
  1.11172139e-01  1.22119784e-01  1.34058832e-01  1.35858472e-01  1.38877221e-01
  1.57060464e-01  1.83457740e-01  1.98119892e-01  2.14286800e-01  2.44611945e-01
  2.52818006e-01  2.62852821e-01  2.66414590e-01  2.82311881e-01  2.91832880e-01
  2.98710624e-01  3.04165881e-01  3.14761163e-01  3.15720430e-01  3.39727711e-01
  3.46949304e-01  3.72703990e-01  3.77239303e-01  3.93682819e-01  4.86506220e-01
  6.03061009e-01  6.23580638e-01  6.36281877e-01  6.42827937e-01  6.52369230e-01
  7.08520012e-01  7.26771198e-01  7.47481039e-01  7.80746944e-01  8.26532218e-01
  8.60526318e-01  8.99631038e-01  9.26192797e-01  9.39323808e-01  1.02339012e+00
  1.05557251e+00  1.08196986e+00  1.09747051e+00  1.11582807e+00  1.16142422e+00
  1.18849558e+00  1.23776101e+00  1.26631757e+00  1.31592533e+00  1.32475644e+00
  1.36201350e+00  1.38929894e+00  1.42591306e+00  1.48212444e+00  1.53968609e+00
  1.61514246e+00  1.62637045e+00  1.74022588e+00  1.74874708e+00  1.78689243e+00
  1.79256530e+00  1.83387092e+00  1.84901378e+00  1.89557400e+00  1.93895544e+00
  1.98244441e+00  2.00924854e+00  2.01598173e+00  2.04553359e+00  2.09521753e+00
  2.15520747e+00  2.20268266e+00  2.27589862e+00  2.36821373e+00  2.41363034e+00
  2.45392971e+00  2.47118579e+00  2.55456323e+00  2.65466144e+00  2.69395263e+00
  2.75930303e+00  2.82695110e+00  2.92623016e+00  3.15264862e+00  3.21253820e+00
  4.15852609e+00  4.20987924e+00  4.31708496e+00  4.43874147e+00  4.52130946e+00
  4.67350853e+00
Alpha MO coefficients                      R   N=       15876
 -9.14904530e-06 -1.43683066e-04  2.02357950e-05  4.03052608e-05 -2.44178559e-05
  6.73986915e-04  3.38098675e-04 -1.02029488e-04 -1.20010641e-04  6.79805941e-05
  2.99919242e-05  1.96373292e-05  4.61100054e-05 -5.04750197e-05 -3.52533836e-05
  3.44511936e-03 -4.32104160e-05  1.27719953e-03 -3.26459948e-04  4.79952767e-05
 -4.24230147e-05 -1.31838905e-04 -3.51068469e-04  1.76259600e-04 -4.42980640e-04
  7.71164419e-04 -6.75647895e-05 -2.89081514e-04  6.16006601e-05 -2.21783598e-04
  5.55905439e-05 -7.59610222e-05  6.01612237e-05  1.71693313e-04 -2.83939376e-03
  3.49204514e-04 -1.54978566e-03  4.28037693e-04 -9.92565293e-01 -2.54120339e-02
  9.44218167e-04  2.21570511e-04 -5.11817624e-04 -1.48277981e-02 -8.88334527e-04
 -1.48513348e-04  4.77085767e-04  8.75518671e-03  8.83847720e-03  8.61208803e-03
 -6.23063417e-05 -8.69219933e-05 -8.11614966e-05  7.20448318e-03  7.34632328e-05
 -5.24959677e-05 -5.21135727e-05  3.29272526e-05 -8.64272858e-05  5.79172299e-06
  6.09008482e-07 -4.00663208e-06  1.17133541e-05 -6.49677417e-05 -5.67891679e-05
  5.19956679e-05 -2.71269156e-05  6.03727644e-05 -6.17125005e-05 -3.16686912e-05
 -1.24648396e-05 -4.62959260e-05 -8.79713919e-04  7.67687077e-05 -1.89655729e-04
  2.02018505e-05  7.68767076e-06 -4.36203276e-05  2.01106182e-05 -2.40096402e-05
 -9.14953808e-06 -3.00000150e-04 -1.76979957e-04  5.26853886e-05  9.47045805e-05
  9.70869373e-05  1.68586850e-05  1.43670485e-05 -2.77137403e-05 -2.75201483e-05
  4.65573509e-06 -1.57985065e-03  9.68048438e-05  1.36429069e-05 -6.26241640e-04
  8.91404851e-06 -1.64673481e-04 -3.45623011e-05 -5.20703934e-05  3.75367584e-05
  8.20613909e-05 -2.39661579e-04  2.35266155e-04  4.31550546e-05  1.96519205e-04
  2.58045254e-05  4.58486506e-05 -1.30361652e-04 -2.32641946e-04 -1.96232358e-04
  6.80494786e-05  3.08978120e-04  4.86235353e-05 -4.65897649e-05 -1.21003391e-03
 -5.92194484e-04  6.77803038e-04  2.28316245e-04 -3.51861127e-05  2.06657817e-05
  4.04797688e-05 -7.80350622e-05 -3.12607664e-05 -1.90580391e-04 -5.36049812e-05
 -2.97416840e-04 -9.87580386e-07  7.42315280e-06 -1.58304872e-05  2.21677513e-05
 -2.42325419e-07 -3.88020517e-04  1.11255986e-04 -3.66806696e-04  3.50810899e-05
  1.07953786e-05 -1.92954296e-05  8.71503142e-06  4.41263574e-05 -1.99958132e-05
 -1.21484814e-05  1.48362976e-03 -1.04144881e-03  1.58354660e-03 -4.56111364e-04
  9.90144764e-07  4.80260022e-04  1.70522181e-04 -1.31439964e-04 -2.40186083e-05
 -1.19971013e-03 -1.11687072e-03  1.14552576e-03  5.42044236e-05 -3.46356269e-04
 -4.38186570e-04 -1.38343823e-04  2.99257113e-04 -1.76353436e-05 -4.55259882e-06
  1.79669676e-03  8.96065884e-04 -3.03288871e-03  7.69215102e-04  4.66387531e-05
  5.21336773e-05  6.60457126e-06 -2.57406257e-06 -9.57664988e-06 -2.21612311e-04
 -3.21080957e-05  5.28355226e-05  4.37117982e-05  3.85367008e-05 -6.95873018e-05
  1.44180088e-05  7.38062135e-05 -5.42743552e-05  2.17467091e-06  1.37152570e-03
  8.61763004e-05 -6.93668973e-04  1.54882948e-04  9.92560018e-01  2.51835386e-02
 -8.75680599e-04  1.04732640e-03 -1.68531824e-05  1.62548515e-02 -2.13185443e-05
 -4.22234271e-05  1.14156322e-05 -8.57715929e-03 -8.55183604e-03 -8.68180172e-03
 -1.32067024e-04 -2.48053840e-06 -1.61264196e-06 -6.44591992e-03 -7.00624557e-05
  2.20212174e-04 -2.34291260e-05 -3.71611666e-06 -2.15377669e-06  6.49099410e-06
 -7.20437609e-06 -1.85086749e-05  4.15494570e-04  1.54623150e-05  7.23454206e-05
  3.09769208e-04 -3.10072838e-05 -2.61219620e-07  2.69261658e-06  2.15705763e-05
  1.02317052e-06 -1.67179280e-05 -2.60646673e-03 -1.58811616e-04  7.20540847e-04
 -4.05037406e-04  1.67936038e-06  9.10903948e-05 -2.18985292e-05  7.04863302e-05
  1.31039441e-05  7.72916047e-05 -1.08725423e-07  4.66310448e-06  1.07368404e-05
 -4.10031223e-04  1.61929851e-05  2.37429058e-04 -2.60634285e-04  3.91346366e-05
 -3.46679120e-05  2.18615719e-05  9.36244701e-07 -1.19577917e-05  1.45132517e-05
  1.29272426e-03  3.92413342e-04 -3.92529930e-04 -4.44695140e-05 -3.31182968e-05
 -1.31350298e-04  4.97696480e-06  1.91436237e-04  2.43238415e-05  1.74683323e-04
 -1.40320226e-05 -2.31591404e-05  9.73938256e-04 -6.98864751e-05 -3.97138490e-05
 -1.28500342e-05  3.83015740e-05  4.44766207e-03  1.52811248e-03  5.80367440e-04
 -7.04695170e-04 -3.85744399e-04 -8.62232695e-05 -1.22228814e-04  3.79896133e-05
  1.18765113e-04 -5.30327311e-06  2.36832410e-02  1.29119066e-03  3.69636145e-03
 -2.65016462e-03  9.93225802e-01  4.97093524e-02  7.99172526e-04  3.27356153e-04
 -4.47743737e-04 -1.66615884e-02  3.11843734e-03 -3.10374618e-03 -1.11185246e-04
 -8.37043185e-03 -7.91236506e-03 -8.88911163e-03 -5.37317351e-04 -8.65856405e-05
 -2.30441263e-04 -2.07776415e-02  5.53299113e-03 -4.37496460e-03 -8.31816657e-04
  4.56497866e-06  3.65904414e-04  4.07358200e-05 -1.17861272e-05 -1.51299856e-05
 -4.03908843e-04 -4.26051417e-04  8.87123088e-04 -1.69054389e-04  3.18303772e-04
 -3.20247617e-04  2.03173014e-04 -1.88160769e-04  1.07143749e-04  3.44984210e-04
  8.62823502e-03 -2.76692853e-03 -2.49780978e-03  1.71465246e-03 -9.78638247e-05
  6.47637251e-04 -3.45364278e-06  9.22606879e-06  1.00909193e-05 -4.07782974e-03
  1.31613423e-03 -1.75241521e-03  3.37934102e-05  2.42385178e-04  7.41629061e-05
  5.04197824e-04  3.32544448e-04  1.84855788e-05  5.35292384e-05  3.49120326e-03
 -2.27897189e-03  2.21642114e-03  3.05347473e-04 -2.54182950e-06 -8.98449496e-05
 -9.48187131e-06  8.54122588e-05  6.60572853e-05 -1.19047081e-03 -1.17247435e-04
 -2.68980645e-04 -1.00531607e-03  1.46747228e-04 -2.38240815e-05 -2.67620244e-05
 -7.37577416e-05 -3.41887329e-05 -9.46698861e-06 -7.01187305e-03 -5.97678099e-04
  2.57800585e-03 -1.91809556e-03 -1.22834551e-04 -5.27009156e-04 -3.91936681e-05
 -5.07888739e-04 -7.98420918e-06 -6.60684499e-05 -2.55192974e-05 -9.24575443e-05
 -2.99407208e-05 -1.12365694e-03 -5.49387986e-04  5.07251361e-04  8.87328526e-04
 -5.97702599e-05  1.95452478e-04 -1.41813888e-05  1.19131402e-05  7.12394097e-06
 -7.23684300e-05  1.54949054e-03  2.33562327e-03 -5.14752939e-04  1.06724787e-05
  7.54247562e-05  5.48035651e-04 -2.48386252e-05 -7.34714953e-04 -1.10009204e-05
 -9.62117380e-04  9.42586389e-05 -7.27434734e-06 -5.91299645e-05 -2.31515513e-04
 -1.83619764e-05 -9.28398047e-05 -3.60034788e-05 -4.79739384e-04  2.46517704e-04
  7.87740469e-05  5.26975969e-04  8.90857311e-06  5.93629017e-05 -6.50947106e-05
  4.03471689e-05 -3.59174691e-05 -5.65906789e-05  2.33808928e-03  2.95077322e-03
 -1.83321642e-03  1.91918208e-04  1.45380990e-05 -8.35723896e-05 -9.44126705e-05
 -1.90162622e-05 -1.38394899e-05 -3.43738149e-03 -1.41969450e-03  1.35329250e-03
  2.69205826e-04  1.92385574e-05  7.23334879e-05  1.58675999e-06 -4.68437907e-06
  1.52417083e-07  5.25268084e-06 -7.26847248e-03  3.82590946e-03  1.31395759e-03
 -1.54699091e-03 -5.41732696e-05 -1.70214267e-05 -3.94885068e-06  2.33131136e-05
 -1.61707927e-05  1.80032764e-03 -3.61997832e-04 -5.46936130e-06  2.00525034e-04
 -3.15242098e-04 -1.11902697e-04  3.78234173e-05  2.89149994e-04  7.84827422e-05
 -7.00246208e-05  8.42609785e-03 -3.66662985e-03  2.64613572e-03  7.01162204e-04
 -8.15428389e-05 -3.95332609e-04  2.55572925e-05 -6.82434861e-05  1.60018502e-05
  2.61702911e-03 -5.49439135e-04  9.32341859e-04 -1.07051789e-04 -2.05480407e-04
 -1.55720470e-04 -2.49440475e-04 -6.60304849e-05  1.15261983e-05 -2.31043451e-05
  2.22077398e-03 -7.82800302e-04  4.27444799e-04 -1.61489355e-04  2.21436435e-03
 -1.08627973e-04  2.27769045e-05 -5.75795520e-05 -2.11025888e-05  5.08379381e-03
  1.51359912e-03  1.42502069e-03 -3.86275014e-04 -2.97766156e-04 -2.50264852e-04
 -1.29075984e-04 -1.12118837e-04  2.88585710e-05  6.58140527e-05  1.86655623e-02
  3.68483008e-03 -5.51305097e-04  4.59848095e-04 -9.83166059e-06 -6.93856469e-04
  1.89040960e-05  1.89230051e-04  9.93208597e-01  5.02771836e-02  7.29834666e-04
 -7.77646648e-04 -4.30545099e-05 -2.25151609e-02 -7.76637393e-04  2.67590590e-03
 -3.91577889e-04 -8.69370482e-03 -8.66596341e-03 -8.50692535e-03 -4.02385682e-05
  2.92573169e-05  2.84724367e-06 -1.70068624e-02  7.87168622e-04  3.59345359e-03
 -7.84422601e-04 -1.27993720e-04 -9.13500653e-04 -1.11235838e-04 -7.99942641e-04
  6.65905155e-06  3.21808048e-03 -5.07333835e-05  2.72559509e-03  8.95578397e-01
  4.58225537e-02  2.36015320e-04  1.64321679e-04 -4.37153000e-05 -1.94419120e-02
 -2.66079959e-03 -5.31275121e-04  8.13571351e-04 -8.20695450e-03 -8.10977520e-03
 -8.02717262e-03  1.38609170e-04  5.73311884e-05  1.41330674e-04 -4.02011981e-04
  9.51661789e-04 -5.11679536e-04 -5.11097179e-04 -1.05930950e-03 -2.46137310e-04
  1.03643824e-04  5.40867328e-05 -3.58255325e-05  3.45557826e-03 -4.84724744e-03
  1.79915510e-04  1.85679197e-03 -3.30264738e-04 -9.53586482e-05 -1.29805431e-04
 -2.52336076e-06  1.21537236e-04 -3.18604444e-06 -6.13630514e-03  1.63915044e-03
 -8.49201915e-04 -1.72355909e-04  2.51932709e-06 -5.30815494e-05 -2.25737927e-05
  7.59745716e-05 -2.76874179e-06 -3.52134133e-04  5.31686456e-04 -6.83057434e-04
 -9.25224135e-05  4.37624191e-05  9.40158562e-05 -8.46783719e-05 -2.45820362e-05
 -3.15206418e-05 -9.83893522e-05  1.82297019e-03 -3.44786699e-04 -6.82427751e-04
  4.55867138e-04 -2.63354025e-05 -1.61850608e-04 -1.05123432e-05 -4.95951805e-05
  1.12803054e-05  1.03777936e-03  1.98699999e-04  8.32774948e-04 -3.42437381e-04
 -1.30414764e-04  9.68492182e-05 -1.26390831e-04 -4.19312189e-05 -1.56330845e-05
 -9.19394126e-05  1.88403922e-03 -6.98454119e-04  4.59325702e-04  1.42041110e-04
  4.28924902e-01  2.15465292e-02  1.07675480e-04 -1.17243686e-05 -2.65844968e-05
 -3.84070511e-03 -1.94299777e-05 -1.60909887e-03  9.10715147e-04 -4.06737837e-03
 -4.17414552e-03 -3.95109864e-03  4.17702371e-05 -3.91666552e-05  1.73514923e-04
  5.14703939e-03  1.31504927e-03 -3.85838112e-04  4.97511096e-04 -4.78380516e-05
  3.59101261e-03 -9.62081868e-05  2.87125801e-03 -1.06015664e-03 -3.62689714e-04
  1.14578071e-04 -3.19174224e-05 -1.10332286e-04  2.67756674e-03 -4.77438499e-04
 -4.88799416e-04  7.88304365e-04 -1.46737390e-04 -4.45492703e-05 -6.39961029e-05
 -7.43092105e-05  1.66701298e-05 -4.52088688e-05 -2.31788305e-04  5.84533200e-04
 -1.43062175e-04 -4.84493551e-05 -1.71806413e-04  8.52037148e-04 -1.81104534e-04
  1.20370823e-03 -1.34180304e-04 -8.29072529e-04 -6.88013025e-05  8.80799205e-05
  4.29211942e-01  2.24422310e-02  5.56173445e-05  9.80473164e-05 -5.69267146e-05
 -1.69842342e-02 -2.32487624e-04 -2.55356955e-03  1.85466584e-03 -3.67154092e-03
 -3.50617437e-03 -3.62692846e-03 -3.13474999e-05  6.41315072e-05 -5.86076188e-05
 -2.14367937e-02 -1.79417213e-03 -2.50171739e-03  2.45129586e-03 -5.14773693e-04
 -8.32399939e-05 -2.43492591e-05  7.59081242e-06 -7.36126557e-05  4.17345172e-03
 -2.07357330e-03 -2.87374981e-04  1.38868038e-03 -2.17607806e-04 -2.97093935e-05
 -7.91837014e-05  4.73745747e-05  1.60764265e-05  3.96173497e-05  1.16982280e-02
 -3.06281447e-03  9.28978611e-04  1.07735849e-03 -1.69494403e-05 -5.86834069e-05
 -3.47648971e-05  1.41288826e-05  6.33126939e-07  6.42760982e-04  9.45657531e-05
 -1.63401091e-05 -1.31272611e-04 -1.36717658e-04 -3.28478291e-05  1.52636777e-05
 -5.52447468e-05  8.58746896e-06 -1.43427949e-05 -1.03534572e-03  8.36832407e-04
 -9.14525334e-04  3.29272900e-05  7.65284521e-06  3.68551245e-05 -7.94801544e-06
  9.75282017e-06  2.79390934e-05 -2.67389662e-04  3.52675677e-04  4.98501179e-05
 -2.70686936e-04 -3.23108607e-05  9.12859721e-05 -6.02311044e-07  1.78828077e-05
  1.73987564e-05 -6.19482950e-05 -8.24222039e-04  2.08484864e-04 -4.27319962e-04
 -1.19514105e-04 -8.95696628e-01 -4.58852988e-02 -2.39294642e-04  5.81549947e-05
  5.82396781e-06  2.34616621e-02  2.86882912e-03 -1.49561588e-03  3.92154013e-04
  7.92181990e-03  7.91981166e-03  7.82016773e-03  9.00065573e-05  1.36490765e-05
 -8.16774681e-05  1.81191221e-02  2.83380877e-03 -1.03561559e-03  5.27035568e-04
  1.98091626e-04  2.27338479e-03  1.28126359e-04  2.33002098e-03  2.20863415e-03
  2.71890585e-04 -6.68996030e-05  2.84072570e-05 -9.60957174e-05 -5.31769668e-03
  2.62276160e-03  1.30229305e-03  1.77315836e-04  2.43016294e-04  2.05929878e-04
  5.99502448e-05  7.08671698e-05 -3.28362566e-05 -7.14775026e-05 -7.83219136e-03
  1.37458902e-03  1.36233623e-03 -1.49494605e-04  4.41415086e-05 -3.46096388e-03
 -9.31932847e-05 -3.86602377e-03  1.13509785e-04  5.52650173e-06  1.72236165e-04
  1.01681356e-03  2.18849702e-02 -3.90568480e-02 -2.43398442e-02 -8.05552813e-03
  1.37448661e-02 -5.96538495e-03  3.83207313e-03 -5.27636924e-03 -1.81635571e-03
 -4.97072707e-03  3.73176868e-04 -1.33670176e-04 -5.21278927e-04  3.21079021e-03
  9.04626603e-04  1.00027055e-01  2.57997333e-02 -1.54616766e-03 -8.69213193e-03
  1.13686817e-01 -2.18224531e-01 -6.31289529e-02 -3.06097194e-02  3.65535461e-02
 -5.25374798e-02  4.09278204e-02 -3.39616346e-03 -1.53564557e-02  9.70316322e-03
 -1.15914148e-02  1.57683597e-02  6.86799145e-03  2.20735622e-03  1.02144681e-02
 -1.15705794e-01  3.63548515e-02  1.59461685e-03 -1.57011620e-02  1.66847612e-01
 -3.62473238e-01  7.27864768e-02  4.73331100e-02 -4.98018229e-02 -3.75563374e-01
  4.30129942e-02  2.70369345e-02 -2.90441540e-02  4.13120358e-04 -6.80784336e-03
  6.85980642e-03  1.34537109e-03  5.09727215e-03  6.50167313e-03  3.28166669e-02
 -1.63707211e-02  3.74165753e-03  5.76908850e-03  9.02130021e-02 -1.92377386e-01
  5.19745392e-02 -7.10857928e-02  4.42777843e-03 -1.94483308e-01  1.90071273e-02
 -3.38326588e-02  4.46247002e-03  2.80842344e-03 -3.87535941e-03  4.98728727e-03
  7.41620983e-03 -1.84600583e-03  4.91936282e-04  1.55834346e-02 -8.21858827e-03
  8.09792607e-05  3.36427999e-03  1.61518183e-02 -2.88239099e-02 -2.14331693e-02
  1.18953459e-03  1.87130894e-03 -2.39661193e-02 -6.86155094e-03 -2.82383093e-03
  8.12217334e-05 -3.04427390e-03 -2.84872168e-05  8.99762317e-04 -8.41691452e-04
  4.54310956e-04  4.89353525e-04  1.88316671e-02  5.01450299e-03 -2.41663628e-03
 -2.14474535e-03 -6.69239072e-03  1.12339264e-03 -6.20317790e-03 -1.63021152e-03
  5.04813617e-02 -9.47989476e-02 -4.63733318e-02  5.35021298e-02  3.91388470e-03
 -2.95053155e-02 -1.16648993e-03 -7.70581091e-03  2.44915909e-03 -3.97112228e-03
 -4.80184985e-03  4.75840360e-03  1.07190888e-02  1.47799373e-03 -8.87500306e-04
 -2.63656028e-02 -3.29632502e-03  1.08541911e-02  5.44420596e-04 -3.32235311e-03
  1.85328623e-03 -4.66896918e-03 -2.94121737e-03 -1.63799561e-02 -1.73729437e-03
 -1.49846337e-02 -3.52267669e-04 -6.80314543e-06 -1.71694551e-04  6.80197723e-03
 -1.56129629e-02  4.07531769e-03 -2.06126963e-02 -4.36708768e-03 -2.14891948e-02
  1.98532806e-03  3.66043317e-03 -8.69264502e-04 -3.61201660e-04 -3.04429857e-03
 -4.48408773e-04  2.13033208e-03  3.66142011e-02 -1.24501048e-02  1.91864833e-02
 -9.76259703e-03 -6.64140666e-02  1.33037970e-01  1.14471038e-01 -2.04073284e-01
  2.69975964e-02  2.71797622e-02 -4.20846291e-02  5.10529240e-02  2.39544819e-05
  3.34674415e-03 -6.31594399e-03 -1.47516355e-02 -2.44082001e-02  1.35454273e-03
  7.35950807e-03 -8.10535489e-03  1.54858900e-02 -3.22418534e-02  8.56159846e-03
  1.05914377e-01 -2.30797060e-01  6.23175478e-02 -1.51238558e-02 -2.25914213e-02
 -2.59843701e-01  4.30377326e-02 -1.09057609e-02 -1.36108559e-02 -2.62656313e-03
  5.28940262e-03  5.34701840e-03  2.60451712e-03  3.69680061e-03 -6.51567803e-04
  8.98096366e-03 -3.53011707e-04  1.73742628e-03 -9.06593585e-04 -1.75486027e-01
  3.75062564e-01 -9.74955548e-02  1.05438128e-01  1.72296305e-03  3.93773356e-01
 -3.79640350e-02  3.86771998e-02  1.39938542e-03 -2.55512293e-03 -2.43177918e-03
 -9.82369335e-03 -1.03857522e-02  5.49305778e-04  1.31891364e-03 -5.98036514e-03
 -9.74768613e-03  1.13448384e-02 -6.15031717e-04  1.34982095e-02 -2.18703108e-02
 -1.58540732e-02 -3.98663681e-03  1.78211725e-03 -1.13247480e-02 -9.50062890e-03