Generated by Psi4
     FORCE                           RHF                       TESTBAS
Number of atoms                            I               31
Charge                                     I                0
Multiplicity                               I                1
Number of electrons                        I              116
Number of alpha electrons                  I               58
Number of beta electrons                   I               58
Number of basis functions                  I              334
Number of independent functions            I              334
Atomic numbers                             I   N=          31
           8           6           6           7           6           6
           6           8           1           6           6           6
           6           6           6           1           6           6
           1           1           1           1           1           1
           1           1           1           1           1           1
           1
Nuclear charges                            R   N=          31
  8.00000000e+00  6.00000000e+00  6.00000000e+00  7.00000000e+00  6.00000000e+00
  6.00000000e+00  6.00000000e+00  8.00000000e+00  1.00000000e+00  6.00000000e+00
  6.00000000e+00  6.00000000e+00  6.00000000e+00  6.00000000e+00  6.00000000e+00
  1.00000000e+00  6.00000000e+00  6.00000000e+00  1.00000000e+00  1.00000000e+00
  1.00000000e+00  1.00000000e+00  1.00000000e+00  1.00000000e+00  1.00000000e+00
  1.00000000e+00  1.00000000e+00  1.00000000e+00  1.00000000e+00  1.00000000e+00
  1.00000000e+00
Current cartesian coordinates              R   N=          93
  2.76902070e+00 -2.67912602e+00 -1.77027779e+00  2.29724019e-01 -1.38977283e-01
  1.08601276e+00  2.30390242e+00 -5.94171517e-01 -9.08908782e-01  3.71761537e+00
  1.47896013e+00 -1.72465513e+00  3.78014133e+00  3.94328834e+00 -7.88246058e-01
  2.08653482e+00  4.44513270e+00  1.45661544e+00 -2.56137958e-01  2.73594966e+00
  1.52022971e+00  5.18879210e+00  5.50464342e+00 -1.72933349e+00  5.00768111e+00
  1.08696212e+00 -3.09781584e+00 -2.25241446e+00 -1.29321321e+00  5.79895762e-02
 -2.99067512e+00 -7.72261981e-01 -2.43995228e+00 -5.25875946e+00 -1.68357625e+00
 -3.42173992e+00 -6.86718887e+00 -3.13926533e+00 -1.91305253e+00 -6.16784380e+00
 -3.66590522e+00  5.71603366e-01 -3.88257282e+00 -2.75447278e+00  1.54503802e+00
 -1.76816116e+00  3.46518551e-01 -3.65737679e+00  1.10817792e+00 -1.54182054e+00
  3.52844216e+00  3.72504975e+00 -8.90169373e-01  4.60202672e+00  1.06811913e+00
 -3.56792668e+00  3.10943450e+00 -3.07826450e-01 -1.19477821e+00  5.00080531e+00
  5.22978262e+00 -1.10203106e+00  3.19447055e+00  4.16221005e+00 -2.18794908e+00
  6.15577431e+00  3.82164057e+00  1.02586978e+00  5.37481528e+00  1.54260230e+00
  6.43875888e+00  1.38388596e+00  3.25974038e+00  4.22111557e+00  3.14869531e+00
 -1.25102709e+00  2.97017543e+00  3.32242074e+00 -1.56161319e+00  3.40143204e+00
  5.82072618e-02 -7.39235271e+00 -4.79815314e+00  1.77138923e+00 -3.40080379e+00
 -3.21779762e+00  3.48179549e+00 -5.76424191e+00 -1.26375623e+00 -5.36805201e+00
 -8.63670315e+00 -3.85550485e+00 -2.67064215e+00
Integer atomic weights                     I   N=          31
          15          12          12          14          12          12
          12          15           1          12          12          12
          12          12          12           1          12          12
           1           1           1           1           1           1
           1           1           1           1           1           1
           1
Real atomic weights                        R   N=          31
  1.59949146e+01  1.20000000e+01  1.20000000e+01  1.40030740e+01  1.20000000e+01
  1.20000000e+01  1.20000000e+01  1.59949146e+01  1.00782503e+00  1.20000000e+01
  1.20000000e+01  1.20000000e+01  1.20000000e+01  1.20000000e+01  1.20000000e+01
  1.00782503e+00  1.20000000e+01  1.20000000e+01  1.00782503e+00  1.00782503e+00
  1.00782503e+00  1.00782503e+00  1.00782503e+00  1.00782503e+00  1.00782503e+00
  1.00782503e+00  1.00782503e+00  1.00782503e+00  1.00782503e+00  1.00782503e+00
  1.00782503e+00
Number of primitive shells                 I              332
Number of contracted shells                I              158
Pure/Cartesian d shells                    I                1
Pure/Cartesian f shells                    I                1
Highest angular momentum                   I                2
Largest degree of contraction              I                6
Shell types                                I   N=         158
           0           0           1           0           1           2
           0           1           0           0           1           0
           1           2           0           1           0           0
           1           0           1           2           0           1
           0           0           1           0           1           2
           0           1           0           0           1           0
           1           2           0           1           0           0
           1           0           1           2           0           1
           0           0           1           0           1           2
           0           1           0           0           1           0
           1           2           0           1           0           0
           0           0           1           0           1           2
           0           1           0           0           1           0
           1           2           0           1           0           0
           1           0           1           2           0           1
           0           0           1           0           1           2
           0           1           0           0           1           0
           1           2           0           1           0           0
           1           0           1           2           0           1
           0           0           0           0           1           0
           1           2           0           1           0           0
           1           0           1           2           0           1
           0           0           0           0           0           0
           0           0           0           0           0           0
           0           0           0           0           0           0
           0           0           0           0           0           0
           0           0
Number of primitives per shell             I   N=         158
           6           3           3           1           1           1
           1           1           6           3           3           1
           1           1           1           1           6           3
           3           1           1           1           1           1
           6           3           3           1           1           1
           1           1           6           3           3           1
           1           1           1           1           6           3
           3           1           1           1           1           1
           6           3           3           1           1           1
           1           1           6           3           3           1
           1           1           1           1           3           1
           6           3           3           1           1           1
           1           1           6           3           3           1
           1           1           1           1           6           3
           3           1           1           1           1           1
           6           3           3           1           1           1
           1           1           6           3           3           1
           1           1           1           1           6           3
           3           1           1           1           1           1
           3           1           6           3           3           1
           1           1           1           1           6           3
           3           1           1           1           1           1
           3           1           3           1           3           1
           3           1           3           1           3           1
           3           1           3           1           3           1
           3           1           3           1           3           1
           3           1
Shell to atom map                          I   N=         158
           1           1           1           1           1           1
           1           1           2           2           2           2
           2           2           2           2           3           3
           3           3           3           3           3           3
           4           4           4           4           4           4
           4           4           5           5           5           5
           5           5           5           5           6           6
           6           6           6           6           6           6
           7           7           7           7           7           7
           7           7           8           8           8           8
           8           8           8           8           9           9
          10          10          10          10          10          10
          10          10          11          11          11          11
          11          11          11          11          12          12
          12          12          12          12          12          12
          13          13          13          13          13          13
          13          13          14          14          14          14
          14          14          14          14          15          15
          15          15          15          15          15          15
          16          16          17          17          17          17
          17          17          17          17          18          18
          18          18          18          18          18          18
          19          19          20          20          21          21
          22          22          23          23          24          24
          25          25          26          26          27          27
          28          28          29          29          30          30
          31          31
Primitive exponents                        R   N=         332
  5.48467170e+03  8.25234950e+02  1.88046960e+02  5.29645000e+01  1.68975700e+01
  5.79963530e+00  1.55396160e+01  3.59993360e+00  1.01376180e+00  1.55396160e+01
  3.59993360e+00  1.01376180e+00  2.70005800e-01  2.70005800e-01  8.00000000e-01
  8.45000000e-02  8.45000000e-02  3.04752490e+03  4.57369510e+02  1.03948690e+02
  2.92101550e+01  9.28666300e+00  3.16392700e+00  7.86827240e+00  1.88128850e+00
  5.44249300e-01  7.86827240e+00  1.88128850e+00  5.44249300e-01  1.68714400e-01
  1.68714400e-01  8.00000000e-01  4.38000000e-02  4.38000000e-02  3.04752490e+03
  4.57369510e+02  1.03948690e+02  2.92101550e+01  9.28666300e+00  3.16392700e+00
  7.86827240e+00  1.88128850e+00  5.44249300e-01  7.86827240e+00  1.88128850e+00
  5.44249300e-01  1.68714400e-01  1.68714400e-01  8.00000000e-01  4.38000000e-02
  4.38000000e-02  4.17351100e+03  6.27457900e+02  1.42902100e+02  4.02343300e+01
  1.28202100e+01  4.39043700e+00  1.16263580e+01  2.71628000e+00  7.72218000e-01
  1.16263580e+01  2.71628000e+00  7.72218000e-01  2.12031300e-01  2.12031300e-01
  8.00000000e-01  6.39000000e-02  6.39000000e-02  3.04752490e+03  4.57369510e+02
  1.03948690e+02  2.92101550e+01  9.28666300e+00  3.16392700e+00  7.86827240e+00
  1.88128850e+00  5.44249300e-01  7.86827240e+00  1.88128850e+00  5.44249300e-01
  1.68714400e-01  1.68714400e-01  8.00000000e-01  4.38000000e-02  4.38000000e-02
  3.04752490e+03  4.57369510e+02  1.03948690e+02  2.92101550e+01  9.28666300e+00
  3.16392700e+00  7.86827240e+00  1.88128850e+00  5.44249300e-01  7.86827240e+00
  1.88128850e+00  5.44249300e-01  1.68714400e-01  1.68714400e-01  8.00000000e-01
  4.38000000e-02  4.38000000e-02  3.04752490e+03  4.57369510e+02  1.03948690e+02
  2.92101550e+01  9.28666300e+00  3.16392700e+00  7.86827240e+00  1.88128850e+00
  5.44249300e-01  7.86827240e+00  1.88128850e+00  5.44249300e-01  1.68714400e-01
  1.68714400e-01  8.00000000e-01  4.38000000e-02  4.38000000e-02  5.48467170e+03
  8.25234950e+02  1.88046960e+02  5.29645000e+01  1.68975700e+01  5.79963530e+00
  1.55396160e+01  3.59993360e+00  1.01376180e+00  1.55396160e+01  3.59993360e+00
  1.01376180e+00  2.70005800e-01  2.70005800e-01  8.00000000e-01  8.45000000e-02
  8.45000000e-02  1.87311370e+01  2.82539370e+00  6.40121700e-01  1.61277800e-01
  3.04752490e+03  4.57369510e+02  1.03948690e+02  2.92101550e+01  9.28666300e+00
  3.16392700e+00  7.86827240e+00  1.88128850e+00  5.44249300e-01  7.86827240e+00
  1.88128850e+00  5.44249300e-01  1.68714400e-01  1.68714400e-01  8.00000000e-01
  4.38000000e-02  4.38000000e-02  3.04752490e+03  4.57369510e+02  1.03948690e+02
  2.92101550e+01  9.28666300e+00  3.16392700e+00  7.86827240e+00  1.88128850e+00
  5.44249300e-01  7.86827240e+00  1.88128850e+00  5.44249300e-01  1.68714400e-01
  1.68714400e-01  8.00000000e-01  4.38000000e-02  4.38000000e-02  3.04752490e+03
  4.57369510e+02  1.03948690e+02  2.92101550e+01  9.28666300e+00  3.16392700e+00
  7.86827240e+00  1.88128850e+00  5.44249300e-01  7.86827240e+00  1.88128850e+00
  5.44249300e-01  1.68714400e-01  1.68714400e-01  8.00000000e-01  4.38000000e-02
  4.38000000e-02  3.04752490e+03  4.57369510e+02  1.03948690e+02  2.92101550e+01
  9.28666300e+00  3.16392700e+00  7.86827240e+00  1.88128850e+00  5.44249300e-01
  7.86827240e+00  1.88128850e+00  5.44249300e-01  1.68714400e-01  1.68714400e-01
  8.00000000e-01  4.38000000e-02  4.38000000e-02  3.04752490e+03  4.57369510e+02
  1.03948690e+02  2.92101550e+01  9.28666300e+00  3.16392700e+00  7.86827240e+00
  1.88128850e+00  5.44249300e-01  7.86827240e+00  1.88128850e+00  5.44249300e-01
  1.68714400e-01  1.68714400e-01  8.00000000e-01  4.38000000e-02  4.38000000e-02
  3.04752490e+03  4.57369510e+02  1.03948690e+02  2.92101550e+01  9.28666300e+00
  3.16392700e+00  7.86827240e+00  1.88128850e+00  5.44249300e-01  7.86827240e+00
  1.88128850e+00  5.44249300e-01  1.68714400e-01  1.68714400e-01  8.00000000e-01
  4.38000000e-02  4.38000000e-02  1.87311370e+01  2.82539370e+00  6.40121700e-01
  1.61277800e-01  3.04752490e+03  4.57369510e+02  1.03948690e+02  2.92101550e+01
  9.28666300e+00  3.16392700e+00  7.86827240e+00  1.88128850e+00  5.44249300e-01
  7.86827240e+00  1.88128850e+00  5.44249300e-01  1.68714400e-01  1.68714400e-01
  8.00000000e-01  4.38000000e-02  4.38000000e-02  3.04752490e+03  4.57369510e+02
  1.03948690e+02  2.92101550e+01  9.28666300e+00  3.16392700e+00  7.86827240e+00
  1.88128850e+00  5.44249300e-01  7.86827240e+00  1.88128850e+00  5.44249300e-01
  1.68714400e-01  1.68714400e-01  8.00000000e-01  4.38000000e-02  4.38000000e-02
  1.87311370e+01  2.82539370e+00  6.40121700e-01  1.61277800e-01  1.87311370e+01
  2.82539370e+00  6.40121700e-01  1.61277800e-01  1.87311370e+01  2.82539370e+00
  6.40121700e-01  1.61277800e-01  1.87311370e+01  2.82539370e+00  6.40121700e-01
  1.61277800e-01  1.87311370e+01  2.82539370e+00  6.40121700e-01  1.61277800e-01
  1.87311370e+01  2.82539370e+00  6.40121700e-01  1.61277800e-01  1.87311370e+01
  2.82539370e+00  6.40121700e-01  1.61277800e-01  1.87311370e+01  2.82539370e+00
  6.40121700e-01  1.61277800e-01  1.87311370e+01  2.82539370e+00  6.40121700e-01
  1.61277800e-01  1.87311370e+01  2.82539370e+00  6.40121700e-01  1.61277800e-01
  1.87311370e+01  2.82539370e+00  6.40121700e-01  1.61277800e-01  1.87311370e+01
  2.82539370e+00  6.40121700e-01  1.61277800e-01  1.87311370e+01  2.82539370e+00
  6.40121700e-01  1.61277800e-01
Contraction coefficients                   R   N=         332
  1.83109981e-03  1.39500985e-02  6.84450927e-02  2.32714275e-01  4.70192950e-01
  3.58520862e-01 -1.10777504e-01 -1.48026305e-01  1.13076704e+00  7.08742995e-02
  3.39752798e-01  7.27158595e-01  1.00000000e+00  1.00000000e+00  1.00000000e+00
  1.00000000e+00  1.00000000e+00  1.83470016e-03  1.40373012e-02  6.88426061e-02
  2.32184421e-01  4.67941342e-01  3.62312032e-01 -1.19332409e-01 -1.60854212e-01
  1.14345648e+00  6.89990956e-02  3.16423980e-01  7.44308252e-01  1.00000000e+00
  1.00000000e+00  1.00000000e+00  1.00000000e+00  1.00000000e+00  1.83470016e-03
  1.40373012e-02  6.88426061e-02  2.32184421e-01  4.67941342e-01  3.62312032e-01
 -1.19332409e-01 -1.60854212e-01  1.14345648e+00  6.89990956e-02  3.16423980e-01
  7.44308252e-01  1.00000000e+00  1.00000000e+00  1.00000000e+00  1.00000000e+00
  1.00000000e+00  1.83479944e-03  1.39949958e-02  6.85869792e-02  2.32240930e-01
  4.69069858e-01  3.60454891e-01 -1.14961023e-01 -1.69118034e-01  1.14585223e+00
  6.75800232e-02  3.23907111e-01  7.40895255e-01  1.00000000e+00  1.00000000e+00
  1.00000000e+00  1.00000000e+00  1.00000000e+00  1.83470016e-03  1.40373012e-02
  6.88426061e-02  2.32184421e-01  4.67941342e-01  3.62312032e-01 -1.19332409e-01
 -1.60854212e-01  1.14345648e+00  6.89990956e-02  3.16423980e-01  7.44308252e-01
  1.00000000e+00  1.00000000e+00  1.00000000e+00  1.00000000e+00  1.00000000e+00
  1.83470016e-03  1.40373012e-02  6.88426061e-02  2.32184421e-01  4.67941342e-01
  3.62312032e-01 -1.19332409e-01 -1.60854212e-01  1.14345648e+00  6.89990956e-02
  3.16423980e-01  7.44308252e-01  1.00000000e+00  1.00000000e+00  1.00000000e+00
  1.00000000e+00  1.00000000e+00  1.83470016e-03  1.40373012e-02  6.88426061e-02
  2.32184421e-01  4.67941342e-01  3.62312032e-01 -1.19332409e-01 -1.60854212e-01
  1.14345648e+00  6.89990956e-02  3.16423980e-01  7.44308252e-01  1.00000000e+00
  1.00000000e+00  1.00000000e+00  1.00000000e+00  1.00000000e+00  1.83109981e-03
  1.39500985e-02  6.84450927e-02  2.32714275e-01  4.70192950e-01  3.58520862e-01
 -1.10777504e-01 -1.48026305e-01  1.13076704e+00  7.08742995e-02  3.39752798e-01
  7.27158595e-01  1.00000000e+00  1.00000000e+00  1.00000000e+00  1.00000000e+00
  1.00000000e+00  3.34945995e-02  2.34726947e-01  8.13757318e-01  1.00000000e+00
  1.83470016e-03  1.40373012e-02  6.88426061e-02  2.32184421e-01  4.67941342e-01
  3.62312032e-01 -1.19332409e-01 -1.60854212e-01  1.14345648e+00  6.89990956e-02
  3.16423980e-01  7.44308252e-01  1.00000000e+00  1.00000000e+00  1.00000000e+00
  1.00000000e+00  1.00000000e+00  1.83470016e-03  1.40373012e-02  6.88426061e-02
  2.32184421e-01  4.67941342e-01  3.62312032e-01 -1.19332409e-01 -1.60854212e-01
  1.14345648e+00  6.89990956e-02  3.16423980e-01  7.44308252e-01  1.00000000e+00
  1.00000000e+00  1.00000000e+00  1.00000000e+00  1.00000000e+00  1.83470016e-03
  1.40373012e-02  6.88426061e-02  2.32184421e-01  4.67941342e-01  3.62312032e-01
 -1.19332409e-01 -1.60854212e-01  1.14345648e+00  6.89990956e-02  3.16423980e-01
  7.44308252e-01  1.00000000e+00  1.00000000e+00  1.00000000e+00  1.00000000e+00
  1.00000000e+00  1.83470016e-03  1.40373012e-02  6.88426061e-02  2.32184421e-01
  4.67941342e-01  3.62312032e-01 -1.19332409e-01 -1.60854212e-01  1.14345648e+00
  6.89990956e-02  3.16423980e-01  7.44308252e-01  1.00000000e+00  1.00000000e+00
  1.00000000e+00  1.00000000e+00  1.00000000e+00  1.83470016e-03  1.40373012e-02
  6.88426061e-02  2.32184421e-01  4.67941342e-01  3.62312032e-01 -1.19332409e-01
 -1.60854212e-01  1.14345648e+00  6.89990956e-02  3.16423980e-01  7.44308252e-01
  1.00000000e+00  1.00000000e+00  1.00000000e+00  1.00000000e+00  1.00000000e+00
  1.83470016e-03  1.40373012e-02  6.88426061e-02  2.32184421e-01  4.67941342e-01
  3.62312032e-01 -1.19332409e-01 -1.60854212e-01  1.14345648e+00  6.89990956e-02
  3.16423980e-01  7.44308252e-01  1.00000000e+00  1.00000000e+00  1.00000000e+00
  1.00000000e+00  1.00000000e+00  3.34945995e-02  2.34726947e-01  8.13757318e-01
  1.00000000e+00  1.83470016e-03  1.40373012e-02  6.88426061e-02  2.32184421e-01
  4.67941342e-01  3.62312032e-01 -1.19332409e-01 -1.60854212e-01  1.14345648e+00
  6.89990956e-02  3.16423980e-01  7.44308252e-01  1.00000000e+00  1.00000000e+00
  1.00000000e+00  1.00000000e+00  1.00000000e+00  1.83470016e-03  1.40373012e-02
  6.88426061e-02  2.32184421e-01  4.67941342e-01  3.62312032e-01 -1.19332409e-01
 -1.60854212e-01  1.14345648e+00  6.89990956e-02  3.16423980e-01  7.44308252e-01
  1.00000000e+00  1.00000000e+00  1.00000000e+00  1.00000000e+00  1.00000000e+00
  3.34945995e-02  2.34726947e-01  8.13757318e-01  1.00000000e+00  3.34945995e-02
  2.34726947e-01  8.13757318e-01  1.00000000e+00  3.34945995e-02  2.34726947e-01
  8.13757318e-01  1.00000000e+00  3.34945995e-02  2.34726947e-01  8.13757318e-01
  1.00000000e+00  3.34945995e-02  2.34726947e-01  8.13757318e-01  1.00000000e+00
  3.34945995e-02  2.34726947e-01  8.13757318e-01  1.00000000e+00  3.34945995e-02
  2.34726947e-01  8.13757318e-01  1.00000000e+00  3.34945995e-02  2.34726947e-01
  8.13757318e-01  1.00000000e+00  3.34945995e-02  2.34726947e-01  8.13757318e-01
  1.00000000e+00  3.34945995e-02  2.34726947e-01  8.13757318e-01  1.00000000e+00
  3.34945995e-02  2.34726947e-01  8.13757318e-01  1.00000000e+00  3.34945995e-02
  2.34726947e-01  8.13757318e-01  1.00000000e+00  3.34945995e-02  2.34726947e-01
  8.13757318e-01  1.00000000e+00
Coordinates of each shell                  R   N=         474
  2.76902070e+00 -2.67912602e+00 -1.77027779e+00  2.76902070e+00 -2.67912602e+00
 -1.77027779e+00  2.76902070e+00 -2.67912602e+00 -1.77027779e+00  2.76902070e+00
 -2.67912602e+00 -1.77027779e+00  2.76902070e+00 -2.67912602e+00 -1.77027779e+00
  2.76902070e+00 -2.67912602e+00 -1.77027779e+00  2.76902070e+00 -2.67912602e+00
 -1.77027779e+00  2.76902070e+00 -2.67912602e+00 -1.77027779e+00  2.29724019e-01
 -1.38977283e-01  1.08601276e+00  2.29724019e-01 -1.38977283e-01  1.08601276e+00
  2.29724019e-01 -1.38977283e-01  1.08601276e+00  2.29724019e-01 -1.38977283e-01
  1.08601276e+00  2.29724019e-01 -1.38977283e-01  1.08601276e+00  2.29724019e-01
 -1.38977283e-01  1.08601276e+00  2.29724019e-01 -1.38977283e-01  1.08601276e+00
  2.29724019e-01 -1.38977283e-01  1.08601276e+00  2.30390242e+00 -5.94171517e-01
 -9.08908782e-01  2.30390242e+00 -5.94171517e-01 -9.08908782e-01  2.30390242e+00
 -5.94171517e-01 -9.08908782e-01  2.30390242e+00 -5.94171517e-01 -9.08908782e-01
  2.30390242e+00 -5.94171517e-01 -9.08908782e-01  2.30390242e+00 -5.94171517e-01
 -9.08908782e-01  2.30390242e+00 -5.94171517e-01 -9.08908782e-01  2.30390242e+00
 -5.94171517e-01 -9.08908782e-01  3.71761537e+00  1.47896013e+00 -1.72465513e+00
  3.71761537e+00  1.47896013e+00 -1.72465513e+00  3.71761537e+00  1.47896013e+00
 -1.72465513e+00  3.71761537e+00  1.47896013e+00 -1.72465513e+00  3.71761537e+00
  1.47896013e+00 -1.72465513e+00  3.71761537e+00  1.47896013e+00 -1.72465513e+00
  3.71761537e+00  1.47896013e+00 -1.72465513e+00  3.71761537e+00  1.47896013e+00
 -1.72465513e+00  3.78014133e+00  3.94328834e+00 -7.88246058e-01  3.78014133e+00
  3.94328834e+00 -7.88246058e-01  3.78014133e+00  3.94328834e+00 -7.88246058e-01
  3.78014133e+00  3.94328834e+00 -7.88246058e-01  3.78014133e+00  3.94328834e+00
 -7.88246058e-01  3.78014133e+00  3.94328834e+00 -7.88246058e-01  3.78014133e+00
  3.94328834e+00 -7.88246058e-01  3.78014133e+00  3.94328834e+00 -7.88246058e-01
  2.08653482e+00  4.44513270e+00  1.45661544e+00  2.08653482e+00  4.44513270e+00
  1.45661544e+00  2.08653482e+00  4.44513270e+00  1.45661544e+00  2.08653482e+00
  4.44513270e+00  1.45661544e+00  2.08653482e+00  4.44513270e+00  1.45661544e+00
  2.08653482e+00  4.44513270e+00  1.45661544e+00  2.08653482e+00  4.44513270e+00
  1.45661544e+00  2.08653482e+00  4.44513270e+00  1.45661544e+00 -2.56137958e-01
  2.73594966e+00  1.52022971e+00 -2.56137958e-01  2.73594966e+00  1.52022971e+00
 -2.56137958e-01  2.73594966e+00  1.52022971e+00 -2.56137958e-01  2.73594966e+00
  1.52022971e+00 -2.56137958e-01  2.73594966e+00  1.52022971e+00 -2.56137958e-01
  2.73594966e+00  1.52022971e+00 -2.56137958e-01  2.73594966e+00  1.52022971e+00
 -2.56137958e-01  2.73594966e+00  1.52022971e+00  5.18879210e+00  5.50464342e+00
 -1.72933349e+00  5.18879210e+00  5.50464342e+00 -1.72933349e+00  5.18879210e+00
  5.50464342e+00 -1.72933349e+00  5.18879210e+00  5.50464342e+00 -1.72933349e+00
  5.18879210e+00  5.50464342e+00 -1.72933349e+00  5.18879210e+00  5.50464342e+00
 -1.72933349e+00  5.18879210e+00  5.50464342e+00 -1.72933349e+00  5.18879210e+00
  5.50464342e+00 -1.72933349e+00  5.00768111e+00  1.08696212e+00 -3.09781584e+00
  5.00768111e+00  1.08696212e+00 -3.09781584e+00 -2.25241446e+00 -1.29321321e+00
  5.79895762e-02 -2.25241446e+00 -1.29321321e+00  5.79895762e-02 -2.25241446e+00
 -1.29321321e+00  5.79895762e-02 -2.25241446e+00 -1.29321321e+00  5.79895762e-02
 -2.25241446e+00 -1.29321321e+00  5.79895762e-02 -2.25241446e+00 -1.29321321e+00
  5.79895762e-02 -2.25241446e+00 -1.29321321e+00  5.79895762e-02 -2.25241446e+00
 -1.29321321e+00  5.79895762e-02 -2.99067512e+00 -7.72261981e-01 -2.43995228e+00
 -2.99067512e+00 -7.72261981e-01 -2.43995228e+00 -2.99067512e+00 -7.72261981e-01
 -2.43995228e+00 -2.99067512e+00 -7.72261981e-01 -2.43995228e+00 -2.99067512e+00
 -7.72261981e-01 -2.43995228e+00 -2.99067512e+00 -7.72261981e-01 -2.43995228e+00
 -2.99067512e+00 -7.72261981e-01 -2.43995228e+00 -2.99067512e+00 -7.72261981e-01
 -2.43995228e+00 -5.25875946e+00 -1.68357625e+00 -3.42173992e+00 -5.25875946e+00
 -1.68357625e+00 -3.42173992e+00 -5.25875946e+00 -1.68357625e+00 -3.42173992e+00
 -5.25875946e+00 -1.68357625e+00 -3.42173992e+00 -5.25875946e+00 -1.68357625e+00
 -3.42173992e+00 -5.25875946e+00 -1.68357625e+00 -3.42173992e+00 -5.25875946e+00
 -1.68357625e+00 -3.42173992e+00 -5.25875946e+00 -1.68357625e+00 -3.42173992e+00
 -6.86718887e+00 -3.13926533e+00 -1.91305253e+00 -6.86718887e+00 -3.13926533e+00
 -1.91305253e+00 -6.86718887e+00 -3.13926533e+00 -1.91305253e+00 -6.86718887e+00
 -3.13926533e+00 -1.91305253e+00 -6.86718887e+00 -3.13926533e+00 -1.91305253e+00
 -6.86718887e+00 -3.13926533e+00 -1.91305253e+00 -6.86718887e+00 -3.13926533e+00
 -1.91305253e+00 -6.86718887e+00 -3.13926533e+00 -1.91305253e+00 -6.16784380e+00
 -3.66590522e+00  5.71603366e-01 -6.16784380e+00 -3.66590522e+00  5.71603366e-01
 -6.16784380e+00 -3.66590522e+00  5.71603366e-01 -6.16784380e+00 -3.66590522e+00
  5.71603366e-01 -6.16784380e+00 -3.66590522e+00  5.71603366e-01 -6.16784380e+00
 -3.66590522e+00  5.71603366e-01 -6.16784380e+00 -3.66590522e+00  5.71603366e-01
 -6.16784380e+00 -3.66590522e+00  5.71603366e-01 -3.88257282e+00 -2.75447278e+00
  1.54503802e+00 -3.88257282e+00 -2.75447278e+00  1.54503802e+00 -3.88257282e+00
 -2.75447278e+00  1.54503802e+00 -3.88257282e+00 -2.75447278e+00  1.54503802e+00
 -3.88257282e+00 -2.75447278e+00  1.54503802e+00 -3.88257282e+00 -2.75447278e+00
  1.54503802e+00 -3.88257282e+00 -2.75447278e+00  1.54503802e+00 -3.88257282e+00
 -2.75447278e+00  1.54503802e+00 -1.76816116e+00  3.46518551e-01 -3.65737679e+00
 -1.76816116e+00  3.46518551e-01 -3.65737679e+00  1.10817792e+00 -1.54182054e+00
  3.52844216e+00  1.10817792e+00 -1.54182054e+00  3.52844216e+00  1.10817792e+00
 -1.54182054e+00  3.52844216e+00  1.10817792e+00 -1.54182054e+00  3.52844216e+00
  1.10817792e+00 -1.54182054e+00  3.52844216e+00  1.10817792e+00 -1.54182054e+00
  3.52844216e+00  1.10817792e+00 -1.54182054e+00  3.52844216e+00  1.10817792e+00
 -1.54182054e+00  3.52844216e+00  3.72504975e+00 -8.90169373e-01  4.60202672e+00
  3.72504975e+00 -8.90169373e-01  4.60202672e+00  3.72504975e+00 -8.90169373e-01
  4.60202672e+00  3.72504975e+00 -8.90169373e-01  4.60202672e+00  3.72504975e+00
 -8.90169373e-01  4.60202672e+00  3.72504975e+00 -8.90169373e-01  4.60202672e+00
  3.72504975e+00 -8.90169373e-01  4.60202672e+00  3.72504975e+00 -8.90169373e-01
  4.60202672e+00  1.06811913e+00 -3.56792668e+00  3.10943450e+00  1.06811913e+00
 -3.56792668e+00  3.10943450e+00 -3.07826450e-01 -1.19477821e+00  5.00080531e+00
 -3.07826450e-01 -1.19477821e+00  5.00080531e+00  5.22978262e+00 -1.10203106e+00
  3.19447055e+00  5.22978262e+00 -1.10203106e+00  3.19447055e+00  4.16221005e+00
 -2.18794908e+00  6.15577431e+00  4.16221005e+00 -2.18794908e+00  6.15577431e+00
  3.82164057e+00  1.02586978e+00  5.37481528e+00  3.82164057e+00  1.02586978e+00
  5.37481528e+00  1.54260230e+00  6.43875888e+00  1.38388596e+00  1.54260230e+00
  6.43875888e+00  1.38388596e+00  3.25974038e+00  4.22111557e+00  3.14869531e+00
  3.25974038e+00  4.22111557e+00  3.14869531e+00 -1.25102709e+00  2.97017543e+00
  3.32242074e+00 -1.25102709e+00  2.97017543e+00  3.32242074e+00 -1.56161319e+00
  3.40143204e+00  5.82072618e-02 -1.56161319e+00  3.40143204e+00  5.82072618e-02
 -7.39235271e+00 -4.79815314e+00  1.77138923e+00 -7.39235271e+00 -4.79815314e+00
  1.77138923e+00 -3.40080379e+00 -3.21779762e+00  3.48179549e+00 -3.40080379e+00
 -3.21779762e+00  3.48179549e+00 -5.76424191e+00 -1.26375623e+00 -5.36805201e+00
 -5.76424191e+00 -1.26375623e+00 -5.36805201e+00 -8.63670315e+00 -3.85550485e+00
 -2.67064215e+00 -8.63670315e+00 -3.85550485e+00 -2.67064215e+00
Total Energy                               R     -7.096732588064531e+02
Alpha Orbital Energies                     R   N=         334
 -1.91553874e+01 -1.91544998e+01 -1.44016163e+01 -1.03243932e+01 -1.03228249e+01
 -1.02399001e+01 -1.02202404e+01 -1.02172759e+01 -1.02171902e+01 -1.02092577e+01
 -1.02041744e+01 -1.02040821e+01 -1.02035492e+01 -1.02034804e+01 -1.02025179e+01
 -1.01966796e+01 -1.08035744e+00 -1.06284588e+00 -9.48679548e-01 -8.76959547e-01
 -8.41386613e-01 -7.92877480e-01 -7.67025095e-01 -7.57010889e-01 -7.24481428e-01
 -6.69350620e-01 -6.62319210e-01 -6.36647425e-01 -6.10942661e-01 -6.07053367e-01
 -5.60705314e-01 -5.35199875e-01 -5.14454803e-01 -5.01949800e-01 -4.77486211e-01
 -4.72486156e-01 -4.69197678e-01 -4.63877340e-01 -4.49772665e-01 -4.46463423e-01
 -4.36479748e-01 -4.32076081e-01 -4.27550690e-01 -4.09295232e-01 -4.07349928e-01