Generated by Psi4
     FORCE                           RHF                       TESTBAS
Number of atoms                            I               22
Charge                                     I                0
Multiplicity                               I                1
Number of electrons                        I               86
Number of alpha electrons                  I               43
Number of beta electrons                   I               43
Number of basis functions                  I              248
Number of independent functions            I              248
Atomic numbers                             I   N=          22
           6           6           6           6           6           6
           6           6           6           1           1           1
           8           6           8           1           1           1
           1           1           1           1
Nuclear charges                            R   N=          22
  6.00000000e+00  6.00000000e+00  6.00000000e+00  6.00000000e+00  6.00000000e+00
  6.00000000e+00  6.00000000e+00  6.00000000e+00  6.00000000e+00  1.00000000e+00
  1.00000000e+00  1.00000000e+00  8.00000000e+00  6.00000000e+00  8.00000000e+00
  1.00000000e+00  1.00000000e+00  1.00000000e+00  1.00000000e+00  1.00000000e+00
  1.00000000e+00  1.00000000e+00
Current cartesian coordinates              R   N=          66
 -4.58640060e-01 -4.31365571e-01  2.12058843e+00 -2.05766643e+00 -1.06679478e+00
  4.30576766e+00 -4.55472116e+00 -1.52980058e+00  4.32974521e+00 -6.04915672e+00
 -2.17132262e+00  6.65548582e+00  2.12104656e+00  5.53661471e-02  2.53374484e+00
  3.79682356e+00  6.83831559e-01  5.67741316e-01  2.78994979e+00  8.14699567e-01
 -1.83409562e+00  2.35828667e-01  3.31910704e-01 -2.28168289e+00 -1.42392816e+00
 -2.93815842e-01 -3.78873000e-01  2.85119354e+00 -5.06683548e-02  4.45077180e+00
 -3.39274566e+00 -6.74127205e-01 -8.01719145e-01  5.78471346e+00  1.04290910e+00
  9.20878602e-01 -2.36156030e-01  5.02919040e-01 -4.83994246e+00  1.99361695e+00
  1.62232053e+00 -5.89277698e+00  3.99237960e+00  1.30224307e+00 -4.09240825e+00
  1.66530007e+00  3.65101446e+00 -6.19916940e+00  2.48690675e+00  6.51991572e-01
 -7.64371541e+00 -6.96999768e+00 -4.02412896e+00  6.47061619e+00 -7.56427930e+00
 -7.88216984e-01  6.98152610e+00 -4.84988766e+00 -2.21790323e+00  8.34328980e+00
 -1.04871260e+00 -1.15764388e+00  6.10229366e+00 -5.63037552e+00 -1.44775100e+00
  2.57379787e+00
Integer atomic weights                     I   N=          22
          12          12          12          12          12          12
          12          12          12           1           1           1
          15          12          15           1           1           1
           1           1           1           1
Real atomic weights                        R   N=          22
  1.20000000e+01  1.20000000e+01  1.20000000e+01  1.20000000e+01  1.20000000e+01
  1.20000000e+01  1.20000000e+01  1.20000000e+01  1.20000000e+01  1.00782503e+00
  1.00782503e+00  1.00782503e+00  1.59949146e+01  1.20000000e+01  1.59949146e+01
  1.00782503e+00  1.00782503e+00  1.00782503e+00  1.00782503e+00  1.00782503e+00
  1.00782503e+00  1.00782503e+00
Number of primitive shells                 I              244
Number of contracted shells                I              116
Pure/Cartesian d shells                    I                1
Pure/Cartesian f shells                    I                1
Highest angular momentum                   I                2
Largest degree of contraction              I                6
Shell types                                I   N=         116
           0           0           1           0           1           2
           0           1           0           0           1           0
           1           2           0           1           0           0
           1           0           1           2           0           1
           0           0           1           0           1           2
           0           1           0           0           1           0
           1           2           0           1           0           0
           1           0           1           2           0           1
           0           0           1           0           1           2
           0           1           0           0           1           0
           1           2           0           1           0           0
           1           0           1           2           0           1
           0           0           0           0           0           0
           0           0           1           0           1           2
           0           1           0           0           1           0
           1           2           0           1           0           0
           1           0           1           2           0           1
           0           0           0           0           0           0
           0           0           0           0           0           0
           0           0
Number of primitives per shell             I   N=         116
           6           3           3           1           1           1
           1           1           6           3           3           1
           1           1           1           1           6           3
           3           1           1           1           1           1
           6           3           3           1           1           1
           1           1           6           3           3           1
           1           1           1           1           6           3
           3           1           1           1           1           1
           6           3           3           1           1           1
           1           1           6           3           3           1
           1           1           1           1           6           3
           3           1           1           1           1           1
           3           1           3           1           3           1
           6           3           3           1           1           1
           1           1           6           3           3           1
           1           1           1           1           6           3
           3           1           1           1           1           1
           3           1           3           1           3           1
           3           1           3           1           3           1
           3           1
Shell to atom map                          I   N=         116
           1           1           1           1           1           1
           1           1           2           2           2           2
           2           2           2           2           3           3
           3           3           3           3           3           3
           4           4           4           4           4           4
           4           4           5           5           5           5
           5           5           5           5           6           6
           6           6           6           6           6           6
           7           7           7           7           7           7
           7           7           8           8           8           8
           8           8           8           8           9           9
           9           9           9           9           9           9
          10          10          11          11          12          12
          13          13          13          13          13          13
          13          13          14          14          14          14
          14          14          14          14          15          15
          15          15          15          15          15          15
          16          16          17          17          18          18
          19          19          20          20          21          21
          22          22
Primitive exponents                        R   N=         244
  3.04752490e+03  4.57369510e+02  1.03948690e+02  2.92101550e+01  9.28666300e+00
  3.16392700e+00  7.86827240e+00  1.88128850e+00  5.44249300e-01  7.86827240e+00
  1.88128850e+00  5.44249300e-01  1.68714400e-01  1.68714400e-01  8.00000000e-01
  4.38000000e-02  4.38000000e-02  3.04752490e+03  4.57369510e+02  1.03948690e+02
  2.92101550e+01  9.28666300e+00  3.16392700e+00  7.86827240e+00  1.88128850e+00
  5.44249300e-01  7.86827240e+00  1.88128850e+00  5.44249300e-01  1.68714400e-01
  1.68714400e-01  8.00000000e-01  4.38000000e-02  4.38000000e-02  3.04752490e+03
  4.57369510e+02  1.03948690e+02  2.92101550e+01  9.28666300e+00  3.16392700e+00
  7.86827240e+00  1.88128850e+00  5.44249300e-01  7.86827240e+00  1.88128850e+00
  5.44249300e-01  1.68714400e-01  1.68714400e-01  8.00000000e-01  4.38000000e-02
  4.38000000e-02  3.04752490e+03  4.57369510e+02  1.03948690e+02  2.92101550e+01
  9.28666300e+00  3.16392700e+00  7.86827240e+00  1.88128850e+00  5.44249300e-01
  7.86827240e+00  1.88128850e+00  5.44249300e-01  1.68714400e-01  1.68714400e-01
  8.00000000e-01  4.38000000e-02  4.38000000e-02  3.04752490e+03  4.57369510e+02
  1.03948690e+02  2.92101550e+01  9.28666300e+00  3.16392700e+00  7.86827240e+00
  1.88128850e+00  5.44249300e-01  7.86827240e+00  1.88128850e+00  5.44249300e-01
  1.68714400e-01  1.68714400e-01  8.00000000e-01  4.38000000e-02  4.38000000e-02
  3.04752490e+03  4.57369510e+02  1.03948690e+02  2.92101550e+01  9.28666300e+00
  3.16392700e+00  7.86827240e+00  1.88128850e+00  5.44249300e-01  7.86827240e+00
  1.88128850e+00  5.44249300e-01  1.68714400e-01  1.68714400e-01  8.00000000e-01
  4.38000000e-02  4.38000000e-02  3.04752490e+03  4.57369510e+02  1.03948690e+02
  2.92101550e+01  9.28666300e+00  3.16392700e+00  7.86827240e+00  1.88128850e+00
  5.44249300e-01  7.86827240e+00  1.88128850e+00  5.44249300e-01  1.68714400e-01
  1.68714400e-01  8.00000000e-01  4.38000000e-02  4.38000000e-02  3.04752490e+03
  4.57369510e+02  1.03948690e+02  2.92101550e+01  9.28666300e+00  3.16392700e+00
  7.86827240e+00  1.88128850e+00  5.44249300e-01  7.86827240e+00  1.88128850e+00
  5.44249300e-01  1.68714400e-01  1.68714400e-01  8.00000000e-01  4.38000000e-02
  4.38000000e-02  3.04752490e+03  4.57369510e+02  1.03948690e+02  2.92101550e+01
  9.28666300e+00  3.16392700e+00  7.86827240e+00  1.88128850e+00  5.44249300e-01
  7.86827240e+00  1.88128850e+00  5.44249300e-01  1.68714400e-01  1.68714400e-01
  8.00000000e-01  4.38000000e-02  4.38000000e-02  1.87311370e+01  2.82539370e+00
  6.40121700e-01  1.61277800e-01  1.87311370e+01  2.82539370e+00  6.40121700e-01
  1.61277800e-01  1.87311370e+01  2.82539370e+00  6.40121700e-01  1.61277800e-01
  5.48467170e+03  8.25234950e+02  1.88046960e+02  5.29645000e+01  1.68975700e+01
  5.79963530e+00  1.55396160e+01  3.59993360e+00  1.01376180e+00  1.55396160e+01
  3.59993360e+00  1.01376180e+00  2.70005800e-01  2.70005800e-01  8.00000000e-01
  8.45000000e-02  8.45000000e-02  3.04752490e+03  4.57369510e+02  1.03948690e+02
  2.92101550e+01  9.28666300e+00  3.16392700e+00  7.86827240e+00  1.88128850e+00
  5.44249300e-01  7.86827240e+00  1.88128850e+00  5.44249300e-01  1.68714400e-01
  1.68714400e-01  8.00000000e-01  4.38000000e-02  4.38000000e-02  5.48467170e+03
  8.25234950e+02  1.88046960e+02  5.29645000e+01  1.68975700e+01  5.79963530e+00
  1.55396160e+01  3.59993360e+00  1.01376180e+00  1.55396160e+01  3.59993360e+00
  1.01376180e+00  2.70005800e-01  2.70005800e-01  8.00000000e-01  8.45000000e-02
  8.45000000e-02  1.87311370e+01  2.82539370e+00  6.40121700e-01  1.61277800e-01
  1.87311370e+01  2.82539370e+00  6.40121700e-01  1.61277800e-01  1.87311370e+01
  2.82539370e+00  6.40121700e-01  1.61277800e-01  1.87311370e+01  2.82539370e+00
  6.40121700e-01  1.61277800e-01  1.87311370e+01  2.82539370e+00  6.40121700e-01
  1.61277800e-01  1.87311370e+01  2.82539370e+00  6.40121700e-01  1.61277800e-01
  1.87311370e+01  2.82539370e+00  6.40121700e-01  1.61277800e-01
Contraction coefficients                   R   N=         244
  1.83470016e-03  1.40373012e-02  6.88426061e-02  2.32184421e-01  4.67941342e-01
  3.62312032e-01 -1.19332409e-01 -1.60854212e-01  1.14345648e+00  6.89990956e-02
  3.16423980e-01  7.44308252e-01  1.00000000e+00  1.00000000e+00  1.00000000e+00
  1.00000000e+00  1.00000000e+00  1.83470016e-03  1.40373012e-02  6.88426061e-02
  2.32184421e-01  4.67941342e-01  3.62312032e-01 -1.19332409e-01 -1.60854212e-01
  1.14345648e+00  6.89990956e-02  3.16423980e-01  7.44308252e-01  1.00000000e+00
  1.00000000e+00  1.00000000e+00  1.00000000e+00  1.00000000e+00  1.83470016e-03
  1.40373012e-02  6.88426061e-02  2.32184421e-01  4.67941342e-01  3.62312032e-01
 -1.19332409e-01 -1.60854212e-01  1.14345648e+00  6.89990956e-02  3.16423980e-01
  7.44308252e-01  1.00000000e+00  1.00000000e+00  1.00000000e+00  1.00000000e+00
  1.00000000e+00  1.83470016e-03  1.40373012e-02  6.88426061e-02  2.32184421e-01
  4.67941342e-01  3.62312032e-01 -1.19332409e-01 -1.60854212e-01  1.14345648e+00
  6.89990956e-02  3.16423980e-01  7.44308252e-01  1.00000000e+00  1.00000000e+00
  1.00000000e+00  1.00000000e+00  1.00000000e+00  1.83470016e-03  1.40373012e-02
  6.88426061e-02  2.32184421e-01  4.67941342e-01  3.62312032e-01 -1.19332409e-01
 -1.60854212e-01  1.14345648e+00  6.89990956e-02  3.16423980e-01  7.44308252e-01
  1.00000000e+00  1.00000000e+00  1.00000000e+00  1.00000000e+00  1.00000000e+00
  1.83470016e-03  1.40373012e-02  6.88426061e-02  2.32184421e-01  4.67941342e-01
  3.62312032e-01 -1.19332409e-01 -1.60854212e-01  1.14345648e+00  6.89990956e-02
  3.16423980e-01  7.44308252e-01  1.00000000e+00  1.00000000e+00  1.00000000e+00
  1.00000000e+00  1.00000000e+00  1.83470016e-03  1.40373012e-02  6.88426061e-02
  2.32184421e-01  4.67941342e-01  3.62312032e-01 -1.19332409e-01 -1.60854212e-01
  1.14345648e+00  6.89990956e-02  3.16423980e-01  7.44308252e-01  1.00000000e+00
  1.00000000e+00  1.00000000e+00  1.00000000e+00  1.00000000e+00  1.83470016e-03
  1.40373012e-02  6.88426061e-02  2.32184421e-01  4.67941342e-01  3.62312032e-01
 -1.19332409e-01 -1.60854212e-01  1.14345648e+00  6.89990956e-02  3.16423980e-01
  7.44308252e-01  1.00000000e+00  1.00000000e+00  1.00000000e+00  1.00000000e+00
  1.00000000e+00  1.83470016e-03  1.40373012e-02  6.88426061e-02  2.32184421e-01
  4.67941342e-01  3.62312032e-01 -1.19332409e-01 -1.60854212e-01  1.14345648e+00
  6.89990956e-02  3.16423980e-01  7.44308252e-01  1.00000000e+00  1.00000000e+00
  1.00000000e+00  1.00000000e+00  1.00000000e+00  3.34945995e-02  2.34726947e-01
  8.13757318e-01  1.00000000e+00  3.34945995e-02  2.34726947e-01  8.13757318e-01
  1.00000000e+00  3.34945995e-02  2.34726947e-01  8.13757318e-01  1.00000000e+00
  1.83109981e-03  1.39500985e-02  6.84450927e-02  2.32714275e-01  4.70192950e-01
  3.58520862e-01 -1.10777504e-01 -1.48026305e-01  1.13076704e+00  7.08742995e-02
  3.39752798e-01  7.27158595e-01  1.00000000e+00  1.00000000e+00  1.00000000e+00
  1.00000000e+00  1.00000000e+00  1.83470016e-03  1.40373012e-02  6.88426061e-02
  2.32184421e-01  4.67941342e-01  3.62312032e-01 -1.19332409e-01 -1.60854212e-01
  1.14345648e+00  6.89990956e-02  3.16423980e-01  7.44308252e-01  1.00000000e+00
  1.00000000e+00  1.00000000e+00  1.00000000e+00  1.00000000e+00  1.83109981e-03
  1.39500985e-02  6.84450927e-02  2.32714275e-01  4.70192950e-01  3.58520862e-01
 -1.10777504e-01 -1.48026305e-01  1.13076704e+00  7.08742995e-02  3.39752798e-01
  7.27158595e-01  1.00000000e+00  1.00000000e+00  1.00000000e+00  1.00000000e+00
  1.00000000e+00  3.34945995e-02  2.34726947e-01  8.13757318e-01  1.00000000e+00
  3.34945995e-02  2.34726947e-01  8.13757318e-01  1.00000000e+00  3.34945995e-02
  2.34726947e-01  8.13757318e-01  1.00000000e+00  3.34945995e-02  2.34726947e-01
  8.13757318e-01  1.00000000e+00  3.34945995e-02  2.34726947e-01  8.13757318e-01
  1.00000000e+00  3.34945995e-02  2.34726947e-01  8.13757318e-01  1.00000000e+00
  3.34945995e-02  2.34726947e-01  8.13757318e-01  1.00000000e+00
Coordinates of each shell                  R   N=         348
 -4.58640060e-01 -4.31365571e-01  2.12058843e+00 -4.58640060e-01 -4.31365571e-01
  2.12058843e+00 -4.58640060e-01 -4.31365571e-01  2.12058843e+00 -4.58640060e-01
 -4.31365571e-01  2.12058843e+00 -4.58640060e-01 -4.31365571e-01  2.12058843e+00
 -4.58640060e-01 -4.31365571e-01  2.12058843e+00 -4.58640060e-01 -4.31365571e-01
  2.12058843e+00 -4.58640060e-01 -4.31365571e-01  2.12058843e+00 -2.05766643e+00
 -1.06679478e+00  4.30576766e+00 -2.05766643e+00 -1.06679478e+00  4.30576766e+00
 -2.05766643e+00 -1.06679478e+00  4.30576766e+00 -2.05766643e+00 -1.06679478e+00
  4.30576766e+00 -2.05766643e+00 -1.06679478e+00  4.30576766e+00 -2.05766643e+00
 -1.06679478e+00  4.30576766e+00 -2.05766643e+00 -1.06679478e+00  4.30576766e+00
 -2.05766643e+00 -1.06679478e+00  4.30576766e+00 -4.55472116e+00 -1.52980058e+00
  4.32974521e+00 -4.55472116e+00 -1.52980058e+00  4.32974521e+00 -4.55472116e+00
 -1.52980058e+00  4.32974521e+00 -4.55472116e+00 -1.52980058e+00  4.32974521e+00
 -4.55472116e+00 -1.52980058e+00  4.32974521e+00 -4.55472116e+00 -1.52980058e+00
  4.32974521e+00 -4.55472116e+00 -1.52980058e+00  4.32974521e+00 -4.55472116e+00
 -1.52980058e+00  4.32974521e+00 -6.04915672e+00 -2.17132262e+00  6.65548582e+00
 -6.04915672e+00 -2.17132262e+00  6.65548582e+00 -6.04915672e+00 -2.17132262e+00
  6.65548582e+00 -6.04915672e+00 -2.17132262e+00  6.65548582e+00 -6.04915672e+00
 -2.17132262e+00  6.65548582e+00 -6.04915672e+00 -2.17132262e+00  6.65548582e+00
 -6.04915672e+00 -2.17132262e+00  6.65548582e+00 -6.04915672e+00 -2.17132262e+00
  6.65548582e+00  2.12104656e+00  5.53661471e-02  2.53374484e+00  2.12104656e+00
  5.53661471e-02  2.53374484e+00  2.12104656e+00  5.53661471e-02  2.53374484e+00
  2.12104656e+00  5.53661471e-02  2.53374484e+00  2.12104656e+00  5.53661471e-02
  2.53374484e+00  2.12104656e+00  5.53661471e-02  2.53374484e+00  2.12104656e+00
  5.53661471e-02  2.53374484e+00  2.12104656e+00  5.53661471e-02  2.53374484e+00
  3.79682356e+00  6.83831559e-01  5.67741316e-01  3.79682356e+00  6.83831559e-01
  5.67741316e-01  3.79682356e+00  6.83831559e-01  5.67741316e-01  3.79682356e+00
  6.83831559e-01  5.67741316e-01  3.79682356e+00  6.83831559e-01  5.67741316e-01
  3.79682356e+00  6.83831559e-01  5.67741316e-01  3.79682356e+00  6.83831559e-01
  5.67741316e-01  3.79682356e+00  6.83831559e-01  5.67741316e-01  2.78994979e+00
  8.14699567e-01 -1.83409562e+00  2.78994979e+00  8.14699567e-01 -1.83409562e+00
  2.78994979e+00  8.14699567e-01 -1.83409562e+00  2.78994979e+00  8.14699567e-01
 -1.83409562e+00  2.78994979e+00  8.14699567e-01 -1.83409562e+00  2.78994979e+00
  8.14699567e-01 -1.83409562e+00  2.78994979e+00  8.14699567e-01 -1.83409562e+00
  2.78994979e+00  8.14699567e-01 -1.83409562e+00  2.35828667e-01  3.31910704e-01
 -2.28168289e+00  2.35828667e-01  3.31910704e-01 -2.28168289e+00  2.35828667e-01
  3.31910704e-01 -2.28168289e+00  2.35828667e-01  3.31910704e-01 -2.28168289e+00
  2.35828667e-01  3.31910704e-01 -2.28168289e+00  2.35828667e-01  3.31910704e-01
 -2.28168289e+00  2.35828667e-01  3.31910704e-01 -2.28168289e+00  2.35828667e-01
  3.31910704e-01 -2.28168289e+00 -1.42392816e+00 -2.93815842e-01 -3.78873000e-01
 -1.42392816e+00 -2.93815842e-01 -3.78873000e-01 -1.42392816e+00 -2.93815842e-01
 -3.78873000e-01 -1.42392816e+00 -2.93815842e-01 -3.78873000e-01 -1.42392816e+00
 -2.93815842e-01 -3.78873000e-01 -1.42392816e+00 -2.93815842e-01 -3.78873000e-01
 -1.42392816e+00 -2.93815842e-01 -3.78873000e-01 -1.42392816e+00 -2.93815842e-01
 -3.78873000e-01  2.85119354e+00 -5.06683548e-02  4.45077180e+00  2.85119354e+00
 -5.06683548e-02  4.45077180e+00 -3.39274566e+00 -6.74127205e-01 -8.01719145e-01
 -3.39274566e+00 -6.74127205e-01 -8.01719145e-01  5.78471346e+00  1.04290910e+00
  9.20878602e-01  5.78471346e+00  1.04290910e+00  9.20878602e-01 -2.36156030e-01
  5.02919040e-01 -4.83994246e+00 -2.36156030e-01  5.02919040e-01 -4.83994246e+00
 -2.36156030e-01  5.02919040e-01 -4.83994246e+00 -2.36156030e-01  5.02919040e-01
 -4.83994246e+00 -2.36156030e-01  5.02919040e-01 -4.83994246e+00 -2.36156030e-01
  5.02919040e-01 -4.83994246e+00 -2.36156030e-01  5.02919040e-01 -4.83994246e+00
 -2.36156030e-01  5.02919040e-01 -4.83994246e+00  1.99361695e+00  1.62232053e+00
 -5.89277698e+00  1.99361695e+00  1.62232053e+00 -5.89277698e+00  1.99361695e+00
  1.62232053e+00 -5.89277698e+00  1.99361695e+00  1.62232053e+00 -5.89277698e+00
  1.99361695e+00  1.62232053e+00 -5.89277698e+00  1.99361695e+00  1.62232053e+00
 -5.89277698e+00  1.99361695e+00  1.62232053e+00 -5.89277698e+00  1.99361695e+00
  1.62232053e+00 -5.89277698e+00  3.99237960e+00  1.30224307e+00 -4.09240825e+00
  3.99237960e+00  1.30224307e+00 -4.09240825e+00  3.99237960e+00  1.30224307e+00
 -4.09240825e+00  3.99237960e+00  1.30224307e+00 -4.09240825e+00  3.99237960e+00
  1.30224307e+00 -4.09240825e+00  3.99237960e+00  1.30224307e+00 -4.09240825e+00
  3.99237960e+00  1.30224307e+00 -4.09240825e+00  3.99237960e+00  1.30224307e+00
 -4.09240825e+00  1.66530007e+00  3.65101446e+00 -6.19916940e+00  1.66530007e+00
  3.65101446e+00 -6.19916940e+00  2.48690675e+00  6.51991572e-01 -7.64371541e+00
  2.48690675e+00  6.51991572e-01 -7.64371541e+00 -6.96999768e+00 -4.02412896e+00
  6.47061619e+00 -6.96999768e+00 -4.02412896e+00  6.47061619e+00 -7.56427930e+00
 -7.88216984e-01  6.98152610e+00 -7.56427930e+00 -7.88216984e-01  6.98152610e+00
 -4.84988766e+00 -2.21790323e+00  8.34328980e+00 -4.84988766e+00 -2.21790323e+00
  8.34328980e+00 -1.04871260e+00 -1.15764388e+00  6.10229366e+00 -1.04871260e+00
 -1.15764388e+00  6.10229366e+00 -5.63037552e+00 -1.44775100e+00  2.57379787e+00
 -5.63037552e+00 -1.44775100e+00  2.57379787e+00
Total Energy                               R     -5.375160885558903e+02
Alpha Orbital Energies                     R   N=         248
 -1.92047584e+01 -1.92040170e+01 -1.03131127e+01 -1.02574667e+01 -1.02564908e+01
 -1.02082278e+01 -1.02044443e+01 -1.02018998e+01 -1.01986876e+01 -1.01960073e+01
 -1.01938051e+01 -1.01886242e+01 -1.13508574e+00 -1.04342209e+00 -8.70184127e-01
 -8.06289493e-01 -7.66043045e-01 -7.59172407e-01 -7.03578336e-01 -6.70051210e-01
 -6.32994036e-01 -6.19069901e-01 -5.64049570e-01 -5.32385905e-01 -5.29032151e-01
 -5.21198156e-01 -4.99256195e-01 -4.54989691e-01 -4.53405789e-01 -4.37256167e-01
 -4.16734451e-01 -4.10774079e-01 -4.01957327e-01 -4.00937839e-01 -3.95685257e-01
 -3.75994520e-01 -3.68272875e-01 -3.54969348e-01 -3.51534963e-01 -3.38451895e-01
 -2.76828883e-01 -2.44493894e-01 -2.05937047e-01 -3.67242748e-02 -9.04915605e-03
  8.59863351e-03  1.36413676e-02  1.68870099e-02  2.53333179e-02  3.03148870e-02
  3.64249080e-02  3.98551854e-02  4.53348654e-02  4.70365836e-02  5.84264773e-02
  6.50127147e-02  7.12217003e-02  7.64898343e-02  8.00282548e-02  9.56771265e-02
  9.66108992e-02  1.01494388e-01  1.06697774e-01  1.10964727e-01  1.19590996e-01
  1.25172110e-01  1.28030423e-01  1.40601084e-01  1.42164424e-01  1.48168682e-01
  1.51958235e-01  1.60064993e-01  1.64293495e-01  1.70709586e-01  1.73508701e-01
  1.80920383e-01  1.86585101e-01  1.89110106e-01  1.95877842e-01  1.98921869e-01
  2.03938404e-01  2.16998212e-01  2.17615108e-01  2.21362337e-01  2.23413780e-01
  2.27455716e-01  2.32891106e-01  2.41269076e-01  2.44885696e-01  2.60163856e-01
  2.60926305e-01  2.66118933e-01  2.72681346e-01  2.84116454e-01  2.85094182e-01
  2.94798295e-01  2.97694885e-01  3.02637589e-01  3.07474819e-01  3.13037664e-01
  3.16917027e-01  3.20425554e-01  3.24185595e-01  3.35938378e-01  3.44335607e-01
  3.55036398e-01  3.59234092e-01  3.74643913e-01  3.84838201e-01  3.88899267e-01
  4.17615202e-01  4.25731056e-01  4.45360011e-01  4.68926638e-01  4.82135745e-01
  5.05688597e-01  5.90891344e-01  6.27941218e-01  6.34876059e-01  6.58545157e-01
  6.63450290e-01  6.79779449e-01  6.87675465e-01  7.04762983e-01  7.06982298e-01
  7.22376774e-01  7.26349348e-01  7.29793406e-01  7.37308735e-01  7.48425918e-01
  7.61150268e-01  7.76391519e-01  7.91237769e-01  7.91424928e-01  8.07077768e-01
  8.18273212e-01  8.33666024e-01  8.42908278e-01  8.69035396e-01  8.87224233e-01
  8.93158525e-01  9.20427676e-01  9.40917281e-01  9.47695436e-01  9.55513856e-01
  9.79247311e-01  9.86578546e-01  1.01189565e+00  1.04350783e+00  1.05166014e+00
  1.07618902e+00  1.09092571e+00  1.11912519e+00  1.12905256e+00  1.13983029e+00
  1.15325760e+00  1.16619466e+00  1.17772722e+00  1.19743146e+00  1.22391493e+00
  1.23260092e+00  1.24641660e+00  1.25271825e+00  1.26244849e+00  1.29241742e+00
  1.30523840e+00  1.31654507e+00  1.33763212e+00  1.35340312e+00  1.37990179e+00
  1.38327646e+00  1.40281239e+00  1.41750912e+00  1.44606463e+00  1.45273788e+00
  1.47013945e+00  1.48338865e+00  1.48546299e+00  1.49874384e+00  1.56120687e+00
  1.60621103e+00  1.61265416e+00  1.64145171e+00  1.77002847e+00  1.79849816e+00
  1.82462234e+00  1.82946967e+00  1.85579305e+00  1.87004640e+00  1.87453421e+00
  1.89319991e+00  1.91906114e+00  1.92361253e+00  1.95980948e+00  1.97068673e+00
  1.98978636e+00  1.99415245e+00  2.01230051e+00  2.04096786e+00  2.04583168e+00
  2.07335665e+00  2.10564147e+00  2.12024079e+00  2.16257389e+00  2.20242470e+00
  2.20608181e+00  2.24190866e+00  2.25058013e+00  2.26556210e+00  2.31707826e+00
  2.32559599e+00  2.34601108e+00  2.35186748e+00  2.37160911e+00  2.38098903e+00
  2.46699886e+00  2.48380085e+00  2.51353347e+00  2.56672590e+00  2.57404365e+00
  2.62677262e+00  2.64103066e+00  2.66902456e+00  2.70064317e+00  2.72130942e+00
  2.79243614e+00  2.85066043e+00  2.86335766e+00  2.86474765e+00  2.90848383e+00
  2.95189778e+00  3.06716479e+00  3.08457871e+00  3.12575216e+00  3.25829048e+00
  3.47428952e+00  4.20496021e+00  4.22368591e+00  4.27471736e+00  4.27585271e+00
  4.34002126e+00  4.38758735e+00  4.43619248e+00  4.45976480e+00  4.48409955e+00
  4.53150427e+00  4.63414588e+00  5.00783250e+00
Alpha MO coefficients                      R   N=       61504
 -2.74255543e-06 -1.56438341e-05  4.79587255e-06  4.99645412e-06 -5.78877170e-06
  4.16593623e-04  3.45243312e-04  2.26049008e-05  2.54697937e-04  9.40367398e-06
 -2.08544448e-06 -9.59427069e-06  3.97711567e-06 -8.10646380e-06 -6.38632496e-07
  1.01802895e-04  3.16912411e-03  1.82461208e-04  5.14681178e-03  1.54386650e-07
  1.59510429e-06  2.61401588e-06  3.51431488e-07  2.40866764e-06 -3.79402218e-05
 -1.83235432e-04 -3.44450707e-05 -1.91064879e-06 -7.06310713e-07 -1.16913103e-06
  4.43467557e-07 -4.49351021e-07  6.51314426e-06  7.84329203e-07 -4.84314580e-03
 -1.92554478e-04 -2.01386518e-04  5.65378534e-04 -4.41404043e-06 -1.64721838e-05
 -1.48828670e-06 -1.20738377e-06  1.93290037e-06  4.56625640e-05 -8.66367783e-05
 -1.29893729e-05 -4.53304657e-07 -7.72581124e-06 -8.50285530e-06 -5.11457914e-06
  4.29723745e-07 -1.08266163e-06 -1.12452230e-06  3.07707284e-03 -2.46927070e-03
 -1.06663719e-03  4.36329024e-03  9.70090281e-07  5.51899026e-06  1.49120929e-06
  8.44133042e-07 -2.00852840e-06 -4.64596687e-05 -1.50515622e-05 -1.12866163e-05
  4.85714138e-05  1.49869363e-06  1.77563088e-06 -1.88395590e-06 -2.30814029e-07
  1.00425869e-06  1.18417052e-06 -6.87081750e-03 -7.43712011e-04 -3.24213592e-04
  1.10881248e-03  3.95408565e-06  1.95903818e-05 -1.38121883e-05  9.13398964e-07
 -1.77048204e-05 -4.44700065e-05  6.20379039e-04  1.18065134e-04  1.38694022e-04
  1.87463983e-06  9.24957724e-06  1.56632182e-06  2.86550699e-07 -8.63298593e-06
 -1.72201202e-06 -2.59852314e-03  3.46954202e-03  8.11615362e-04 -1.42764026e-03
 -1.26099714e-05 -3.48256413e-05  7.65738415e-06  4.09666949e-06 -1.12039825e-05
  1.08508050e-03 -1.07405733e-04  1.00929289e-04 -1.07935918e-03 -3.32046404e-05
 -1.25273362e-05 -1.44001526e-05 -2.83856350e-06  8.31938143e-06  4.97150613e-06
 -9.40248323e-04  6.49902738e-04  6.09270647e-04 -1.90939345e-03 -5.74380105e-05
 -6.78754151e-06  1.96788395e-04  7.56601410e-05 -3.58959898e-04  2.11922883e-04
 -1.42271928e-03 -9.05786015e-05 -9.48980796e-04 -9.29421611e-06 -1.14308295e-04
  2.00804510e-04  5.14647468e-05 -1.61070015e-04 -8.27782823e-05  3.57153086e-02
 -7.81701965e-03 -8.51951193e-04 -8.56043749e-03  1.48216637e-05  2.04863729e-04
 -3.97474932e-05 -1.14938197e-05 -5.92370452e-06 -1.57178913e-03 -6.83674238e-04
 -1.90750950e-04  2.75818139e-04 -1.16483845e-04 -2.42766629e-07 -6.38116756e-05
 -4.02656458e-05  6.92891248e-05  2.62315585e-05  3.62121685e-02 -3.04950001e-02
 -9.48950398e-03  2.07493044e-02  1.68109757e-07 -1.68803404e-05  1.50050397e-05
  7.51037115e-06 -2.56150709e-05  2.84185435e-05  6.64373586e-05 -7.80913008e-06
  1.98493361e-04  1.15015212e-05  1.77684594e-06  3.92187760e-05  7.54411476e-06
 -2.70088422e-05 -1.28885505e-05 -6.35600499e-02 -1.24842097e-02 -5.86037392e-03
  2.27066824e-02 -2.74093726e-05 -1.46196602e-04  2.95714287e-06  6.12298310e-05
 -5.34991675e-05  2.95227157e-04 -1.56215331e-03  1.84018682e-05  2.01827381e-06
 -5.94573436e-06 -5.13201091e-07 -1.87376476e-05  7.87608438e-05  8.48217359e-05
  1.55996918e-05 -3.37095383e-05  4.43460094e-05  5.12608780e-05 -1.50629921e-07
 -2.80211111e-05 -7.17096565e-06  2.57334325e-03  1.20117683e-03  1.78124752e-04
  2.42894785e-04 -2.25139015e-05  1.99287257e-05  2.34822680e-04 -5.66537725e-05
  2.75378683e-04 -6.58887370e-04  2.65958636e-04  5.29495945e-05 -2.33013252e-05
  2.11173835e-04 -4.75555414e-05  2.22759868e-04 -5.66670007e-05  3.19665144e-04
 -6.80434887e-05  5.80384952e-03 -5.50390462e-04 -7.14141320e-04  1.29476848e-03
  9.92561189e-01  2.53732574e-02 -1.15037135e-03 -6.44202511e-05  2.18042260e-04
  1.49171666e-02  1.25296704e-03  5.93847723e-05 -3.35600160e-05 -8.84338345e-03
 -8.57619759e-03 -8.82895760e-03 -9.68133979e-06 -1.16807105e-05  7.01631437e-05
 -8.33090307e-03 -1.40449049e-04  7.31349034e-05 -4.70259930e-05  3.52754204e-05
  3.12722042e-04  4.24831511e-05  2.31416196e-04  5.47838071e-07 -1.65988107e-05
  2.80563412e-06 -2.60299113e-05  2.79254393e-06 -3.38033615e-05  5.76928891e-06