Generated by Psi4
     FORCE                           RHF                       TESTBAS
Number of atoms                            I               32
Charge                                     I                0
Multiplicity                               I                1
Number of electrons                        I              104
Number of alpha electrons                  I               52
Number of beta electrons                   I               52
Number of basis functions                  I              302
Number of independent functions            I              302
Atomic numbers                             I   N=          32
           7           6           6           7           6           6
           6           6           6           6           6           1
           1           1           1           1           1           1
           1           1           1           1           6           1
           1           6           1           1           6           1
           1           1
Nuclear charges                            R   N=          32
  7.00000000e+00  6.00000000e+00  6.00000000e+00  7.00000000e+00  6.00000000e+00
  6.00000000e+00  6.00000000e+00  6.00000000e+00  6.00000000e+00  6.00000000e+00
  6.00000000e+00  1.00000000e+00  1.00000000e+00  1.00000000e+00  1.00000000e+00
  1.00000000e+00  1.00000000e+00  1.00000000e+00  1.00000000e+00  1.00000000e+00
  1.00000000e+00  1.00000000e+00  6.00000000e+00  1.00000000e+00  1.00000000e+00
  6.00000000e+00  1.00000000e+00  1.00000000e+00  6.00000000e+00  1.00000000e+00
  1.00000000e+00  1.00000000e+00
Current cartesian coordinates              R   N=          96
 -6.43506426e+00  2.87007823e-02  9.03699132e-01 -5.01588024e+00  8.73461840e-01
  3.15348813e+00 -2.59032961e+00 -6.65682512e-01  3.56396423e+00 -8.52258055e-01
 -5.18637941e-01  1.38476902e+00  4.31012819e+00 -1.69527460e+00 -6.42734481e-01
  6.30013410e+00 -2.08657620e+00 -2.32936312e+00  7.41781705e+00 -3.53088843e-02
 -3.57033303e+00 -4.81074551e+00 -1.22262418e+00 -9.66748953e-01 -2.19019722e+00
 -2.70640311e-02 -1.00475631e+00  4.52433543e+00  2.78704390e+00 -1.42541593e+00
  6.52358868e+00  2.40480390e+00 -3.11333842e+00 -6.23666531e+00  7.21544060e-01
  4.82088713e+00 -4.53167228e+00  2.88378743e+00  2.94726568e+00 -1.08394314e+00
 -7.99309015e-01 -2.57508201e+00 -2.39716674e+00  2.02627539e+00 -1.35530106e+00
 -5.68735020e+00 -1.04783498e+00 -2.83801349e+00 -4.60864672e+00 -3.27077975e+00
 -5.75636756e-01 -3.08979044e+00 -2.65360822e+00  3.90600178e+00 -1.60774834e+00
  3.08017624e-04  5.26139603e+00  7.36967441e+00  4.01165233e+00 -4.07484999e+00
  8.96698434e+00 -3.40939677e-01 -4.88476061e+00  6.98218493e+00 -3.99360458e+00
 -2.67811727e+00  3.40139811e+00  7.49678459e-01 -1.65763375e-01  3.82849604e+00
  4.69286278e+00 -1.08725773e+00  3.42434884e+00 -3.28715827e+00  3.06597732e-01
  1.29651675e+00  1.17798356e+00  1.74329569e+00  7.31171834e-01  3.19583078e+00
  1.67433965e+00  2.04952650e+00  8.34839989e-01  3.64547212e+00 -8.66808816e+00
 -1.46955711e+00  1.47323927e+00 -9.68810814e+00 -1.87451361e+00 -2.84544496e-01
 -9.94025466e+00 -4.04675151e-01  2.71102014e+00 -8.23438746e+00 -3.30424104e+00
  2.39138264e+00
Integer atomic weights                     I   N=          32
          14          12          12          14          12          12
          12          12          12          12          12           1
           1           1           1           1           1           1
           1           1           1           1          12           1
           1          12           1           1          12           1
           1           1
Real atomic weights                        R   N=          32
  1.40030740e+01  1.20000000e+01  1.20000000e+01  1.40030740e+01  1.20000000e+01
  1.20000000e+01  1.20000000e+01  1.20000000e+01  1.20000000e+01  1.20000000e+01
  1.20000000e+01  1.00782503e+00  1.00782503e+00  1.00782503e+00  1.00782503e+00
  1.00782503e+00  1.00782503e+00  1.00782503e+00  1.00782503e+00  1.00782503e+00
  1.00782503e+00  1.00782503e+00  1.20000000e+01  1.00782503e+00  1.00782503e+00
  1.20000000e+01  1.00782503e+00  1.00782503e+00  1.20000000e+01  1.00782503e+00
  1.00782503e+00  1.00782503e+00
Number of primitive shells                 I              310
Number of contracted shells                I              148
Pure/Cartesian d shells                    I                1
Pure/Cartesian f shells                    I                1
Highest angular momentum                   I                2
Largest degree of contraction              I                6
Shell types                                I   N=         148
           0           0           1           0           1           2
           0           1           0           0           1           0
           1           2           0           1           0           0
           1           0           1           2           0           1
           0           0           1           0           1           2
           0           1           0           0           1           0
           1           2           0           1           0           0
           1           0           1           2           0           1
           0           0           1           0           1           2
           0           1           0           0           1           0
           1           2           0           1           0           0
           1           0           1           2           0           1
           0           0           1           0           1           2
           0           1           0           0           1           0
           1           2           0           1           0           0
           0           0           0           0           0           0
           0           0           0           0           0           0
           0           0           0           0           0           0
           0           0           0           0           1           0
           1           2           0           1           0           0
           0           0           0           0           1           0
           1           2           0           1           0           0
           0           0           0           0           1           0
           1           2           0           1           0           0
           0           0           0           0
Number of primitives per shell             I   N=         148
           6           3           3           1           1           1
           1           1           6           3           3           1
           1           1           1           1           6           3
           3           1           1           1           1           1
           6           3           3           1           1           1
           1           1           6           3           3           1
           1           1           1           1           6           3
           3           1           1           1           1           1
           6           3           3           1           1           1
           1           1           6           3           3           1
           1           1           1           1           6           3
           3           1           1           1           1           1
           6           3           3           1           1           1
           1           1           6           3           3           1
           1           1           1           1           3           1
           3           1           3           1           3           1
           3           1           3           1           3           1
           3           1           3           1           3           1
           3           1           6           3           3           1
           1           1           1           1           3           1
           3           1           6           3           3           1
           1           1           1           1           3           1
           3           1           6           3           3           1
           1           1           1           1           3           1
           3           1           3           1
Shell to atom map                          I   N=         148
           1           1           1           1           1           1
           1           1           2           2           2           2
           2           2           2           2           3           3
           3           3           3           3           3           3
           4           4           4           4           4           4
           4           4           5           5           5           5
           5           5           5           5           6           6
           6           6           6           6           6           6
           7           7           7           7           7           7
           7           7           8           8           8           8
           8           8           8           8           9           9
           9           9           9           9           9           9
          10          10          10          10          10          10
          10          10          11          11          11          11
          11          11          11          11          12          12
          13          13          14          14          15          15
          16          16          17          17          18          18
          19          19          20          20          21          21
          22          22          23          23          23          23
          23          23          23          23          24          24
          25          25          26          26          26          26
          26          26          26          26          27          27
          28          28          29          29          29          29
          29          29          29          29          30          30
          31          31          32          32
Primitive exponents                        R   N=         310
  4.17351100e+03  6.27457900e+02  1.42902100e+02  4.02343300e+01  1.28202100e+01
  4.39043700e+00  1.16263580e+01  2.71628000e+00  7.72218000e-01  1.16263580e+01
  2.71628000e+00  7.72218000e-01  2.12031300e-01  2.12031300e-01  8.00000000e-01
  6.39000000e-02  6.39000000e-02  3.04752490e+03  4.57369510e+02  1.03948690e+02
  2.92101550e+01  9.28666300e+00  3.16392700e+00  7.86827240e+00  1.88128850e+00
  5.44249300e-01  7.86827240e+00  1.88128850e+00  5.44249300e-01  1.68714400e-01
  1.68714400e-01  8.00000000e-01  4.38000000e-02  4.38000000e-02  3.04752490e+03
  4.57369510e+02  1.03948690e+02  2.92101550e+01  9.28666300e+00  3.16392700e+00
  7.86827240e+00  1.88128850e+00  5.44249300e-01  7.86827240e+00  1.88128850e+00
  5.44249300e-01  1.68714400e-01  1.68714400e-01  8.00000000e-01  4.38000000e-02
  4.38000000e-02  4.17351100e+03  6.27457900e+02  1.42902100e+02  4.02343300e+01
  1.28202100e+01  4.39043700e+00  1.16263580e+01  2.71628000e+00  7.72218000e-01
  1.16263580e+01  2.71628000e+00  7.72218000e-01  2.12031300e-01  2.12031300e-01
  8.00000000e-01  6.39000000e-02  6.39000000e-02  3.04752490e+03  4.57369510e+02
  1.03948690e+02  2.92101550e+01  9.28666300e+00  3.16392700e+00  7.86827240e+00
  1.88128850e+00  5.44249300e-01  7.86827240e+00  1.88128850e+00  5.44249300e-01
  1.68714400e-01  1.68714400e-01  8.00000000e-01  4.38000000e-02  4.38000000e-02
  3.04752490e+03  4.57369510e+02  1.03948690e+02  2.92101550e+01  9.28666300e+00
  3.16392700e+00  7.86827240e+00  1.88128850e+00  5.44249300e-01  7.86827240e+00
  1.88128850e+00  5.44249300e-01  1.68714400e-01  1.68714400e-01  8.00000000e-01
  4.38000000e-02  4.38000000e-02  3.04752490e+03  4.57369510e+02  1.03948690e+02
  2.92101550e+01  9.28666300e+00  3.16392700e+00  7.86827240e+00  1.88128850e+00
  5.44249300e-01  7.86827240e+00  1.88128850e+00  5.44249300e-01  1.68714400e-01
  1.68714400e-01  8.00000000e-01  4.38000000e-02  4.38000000e-02  3.04752490e+03
  4.57369510e+02  1.03948690e+02  2.92101550e+01  9.28666300e+00  3.16392700e+00
  7.86827240e+00  1.88128850e+00  5.44249300e-01  7.86827240e+00  1.88128850e+00
  5.44249300e-01  1.68714400e-01  1.68714400e-01  8.00000000e-01  4.38000000e-02
  4.38000000e-02  3.04752490e+03  4.57369510e+02  1.03948690e+02  2.92101550e+01
  9.28666300e+00  3.16392700e+00  7.86827240e+00  1.88128850e+00  5.44249300e-01
  7.86827240e+00  1.88128850e+00  5.44249300e-01  1.68714400e-01  1.68714400e-01
  8.00000000e-01  4.38000000e-02  4.38000000e-02  3.04752490e+03  4.57369510e+02
  1.03948690e+02  2.92101550e+01  9.28666300e+00  3.16392700e+00  7.86827240e+00
  1.88128850e+00  5.44249300e-01  7.86827240e+00  1.88128850e+00  5.44249300e-01
  1.68714400e-01  1.68714400e-01  8.00000000e-01  4.38000000e-02  4.38000000e-02
  3.04752490e+03  4.57369510e+02  1.03948690e+02  2.92101550e+01  9.28666300e+00
  3.16392700e+00  7.86827240e+00  1.88128850e+00  5.44249300e-01  7.86827240e+00
  1.88128850e+00  5.44249300e-01  1.68714400e-01  1.68714400e-01  8.00000000e-01
  4.38000000e-02  4.38000000e-02  1.87311370e+01  2.82539370e+00  6.40121700e-01
  1.61277800e-01  1.87311370e+01  2.82539370e+00  6.40121700e-01  1.61277800e-01
  1.87311370e+01  2.82539370e+00  6.40121700e-01  1.61277800e-01  1.87311370e+01
  2.82539370e+00  6.40121700e-01  1.61277800e-01  1.87311370e+01  2.82539370e+00
  6.40121700e-01  1.61277800e-01  1.87311370e+01  2.82539370e+00  6.40121700e-01
  1.61277800e-01  1.87311370e+01  2.82539370e+00  6.40121700e-01  1.61277800e-01
  1.87311370e+01  2.82539370e+00  6.40121700e-01  1.61277800e-01  1.87311370e+01
  2.82539370e+00  6.40121700e-01  1.61277800e-01  1.87311370e+01  2.82539370e+00
  6.40121700e-01  1.61277800e-01  1.87311370e+01  2.82539370e+00  6.40121700e-01
  1.61277800e-01  3.04752490e+03  4.57369510e+02  1.03948690e+02  2.92101550e+01
  9.28666300e+00  3.16392700e+00  7.86827240e+00  1.88128850e+00  5.44249300e-01
  7.86827240e+00  1.88128850e+00  5.44249300e-01  1.68714400e-01  1.68714400e-01
  8.00000000e-01  4.38000000e-02  4.38000000e-02  1.87311370e+01  2.82539370e+00
  6.40121700e-01  1.61277800e-01  1.87311370e+01  2.82539370e+00  6.40121700e-01
  1.61277800e-01  3.04752490e+03  4.57369510e+02  1.03948690e+02  2.92101550e+01
  9.28666300e+00  3.16392700e+00  7.86827240e+00  1.88128850e+00  5.44249300e-01
  7.86827240e+00  1.88128850e+00  5.44249300e-01  1.68714400e-01  1.68714400e-01
  8.00000000e-01  4.38000000e-02  4.38000000e-02  1.87311370e+01  2.82539370e+00
  6.40121700e-01  1.61277800e-01  1.87311370e+01  2.82539370e+00  6.40121700e-01
  1.61277800e-01  3.04752490e+03  4.57369510e+02  1.03948690e+02  2.92101550e+01
  9.28666300e+00  3.16392700e+00  7.86827240e+00  1.88128850e+00  5.44249300e-01
  7.86827240e+00  1.88128850e+00  5.44249300e-01  1.68714400e-01  1.68714400e-01
  8.00000000e-01  4.38000000e-02  4.38000000e-02  1.87311370e+01  2.82539370e+00
  6.40121700e-01  1.61277800e-01  1.87311370e+01  2.82539370e+00  6.40121700e-01
  1.61277800e-01  1.87311370e+01  2.82539370e+00  6.40121700e-01  1.61277800e-01
Contraction coefficients                   R   N=         310
  1.83479944e-03  1.39949958e-02  6.85869792e-02  2.32240930e-01  4.69069858e-01
  3.60454891e-01 -1.14961023e-01 -1.69118034e-01  1.14585223e+00  6.75800232e-02
  3.23907111e-01  7.40895255e-01  1.00000000e+00  1.00000000e+00  1.00000000e+00
  1.00000000e+00  1.00000000e+00  1.83470016e-03  1.40373012e-02  6.88426061e-02
  2.32184421e-01  4.67941342e-01  3.62312032e-01 -1.19332409e-01 -1.60854212e-01
  1.14345648e+00  6.89990956e-02  3.16423980e-01  7.44308252e-01  1.00000000e+00
  1.00000000e+00  1.00000000e+00  1.00000000e+00  1.00000000e+00  1.83470016e-03
  1.40373012e-02  6.88426061e-02  2.32184421e-01  4.67941342e-01  3.62312032e-01
 -1.19332409e-01 -1.60854212e-01  1.14345648e+00  6.89990956e-02  3.16423980e-01
  7.44308252e-01  1.00000000e+00  1.00000000e+00  1.00000000e+00  1.00000000e+00
  1.00000000e+00  1.83479944e-03  1.39949958e-02  6.85869792e-02  2.32240930e-01
  4.69069858e-01  3.60454891e-01 -1.14961023e-01 -1.69118034e-01  1.14585223e+00
  6.75800232e-02  3.23907111e-01  7.40895255e-01  1.00000000e+00  1.00000000e+00
  1.00000000e+00  1.00000000e+00  1.00000000e+00  1.83470016e-03  1.40373012e-02
  6.88426061e-02  2.32184421e-01  4.67941342e-01  3.62312032e-01 -1.19332409e-01
 -1.60854212e-01  1.14345648e+00  6.89990956e-02  3.16423980e-01  7.44308252e-01
  1.00000000e+00  1.00000000e+00  1.00000000e+00  1.00000000e+00  1.00000000e+00
  1.83470016e-03  1.40373012e-02  6.88426061e-02  2.32184421e-01  4.67941342e-01
  3.62312032e-01 -1.19332409e-01 -1.60854212e-01  1.14345648e+00  6.89990956e-02
  3.16423980e-01  7.44308252e-01  1.00000000e+00  1.00000000e+00  1.00000000e+00
  1.00000000e+00  1.00000000e+00  1.83470016e-03  1.40373012e-02  6.88426061e-02
  2.32184421e-01  4.67941342e-01  3.62312032e-01 -1.19332409e-01 -1.60854212e-01
  1.14345648e+00  6.89990956e-02  3.16423980e-01  7.44308252e-01  1.00000000e+00
  1.00000000e+00  1.00000000e+00  1.00000000e+00  1.00000000e+00  1.83470016e-03
  1.40373012e-02  6.88426061e-02  2.32184421e-01  4.67941342e-01  3.62312032e-01
 -1.19332409e-01 -1.60854212e-01  1.14345648e+00  6.89990956e-02  3.16423980e-01
  7.44308252e-01  1.00000000e+00  1.00000000e+00  1.00000000e+00  1.00000000e+00
  1.00000000e+00  1.83470016e-03  1.40373012e-02  6.88426061e-02  2.32184421e-01
  4.67941342e-01  3.62312032e-01 -1.19332409e-01 -1.60854212e-01  1.14345648e+00
  6.89990956e-02  3.16423980e-01  7.44308252e-01  1.00000000e+00  1.00000000e+00
  1.00000000e+00  1.00000000e+00  1.00000000e+00  1.83470016e-03  1.40373012e-02
  6.88426061e-02  2.32184421e-01  4.67941342e-01  3.62312032e-01 -1.19332409e-01
 -1.60854212e-01  1.14345648e+00  6.89990956e-02  3.16423980e-01  7.44308252e-01
  1.00000000e+00  1.00000000e+00  1.00000000e+00  1.00000000e+00  1.00000000e+00
  1.83470016e-03  1.40373012e-02  6.88426061e-02  2.32184421e-01  4.67941342e-01
  3.62312032e-01 -1.19332409e-01 -1.60854212e-01  1.14345648e+00  6.89990956e-02
  3.16423980e-01  7.44308252e-01  1.00000000e+00  1.00000000e+00  1.00000000e+00
  1.00000000e+00  1.00000000e+00  3.34945995e-02  2.34726947e-01  8.13757318e-01
  1.00000000e+00  3.34945995e-02  2.34726947e-01  8.13757318e-01  1.00000000e+00
  3.34945995e-02  2.34726947e-01  8.13757318e-01  1.00000000e+00  3.34945995e-02
  2.34726947e-01  8.13757318e-01  1.00000000e+00  3.34945995e-02  2.34726947e-01
  8.13757318e-01  1.00000000e+00  3.34945995e-02  2.34726947e-01  8.13757318e-01
  1.00000000e+00  3.34945995e-02  2.34726947e-01  8.13757318e-01  1.00000000e+00
  3.34945995e-02  2.34726947e-01  8.13757318e-01  1.00000000e+00  3.34945995e-02
  2.34726947e-01  8.13757318e-01  1.00000000e+00  3.34945995e-02  2.34726947e-01
  8.13757318e-01  1.00000000e+00  3.34945995e-02  2.34726947e-01  8.13757318e-01
  1.00000000e+00  1.83470016e-03  1.40373012e-02  6.88426061e-02  2.32184421e-01
  4.67941342e-01  3.62312032e-01 -1.19332409e-01 -1.60854212e-01  1.14345648e+00
  6.89990956e-02  3.16423980e-01  7.44308252e-01  1.00000000e+00  1.00000000e+00
  1.00000000e+00  1.00000000e+00  1.00000000e+00  3.34945995e-02  2.34726947e-01
  8.13757318e-01  1.00000000e+00  3.34945995e-02  2.34726947e-01  8.13757318e-01
  1.00000000e+00  1.83470016e-03  1.40373012e-02  6.88426061e-02  2.32184421e-01
  4.67941342e-01  3.62312032e-01 -1.19332409e-01 -1.60854212e-01  1.14345648e+00
  6.89990956e-02  3.16423980e-01  7.44308252e-01  1.00000000e+00  1.00000000e+00
  1.00000000e+00  1.00000000e+00  1.00000000e+00  3.34945995e-02  2.34726947e-01
  8.13757318e-01  1.00000000e+00  3.34945995e-02  2.34726947e-01  8.13757318e-01
  1.00000000e+00  1.83470016e-03  1.40373012e-02  6.88426061e-02  2.32184421e-01
  4.67941342e-01  3.62312032e-01 -1.19332409e-01 -1.60854212e-01  1.14345648e+00
  6.89990956e-02  3.16423980e-01  7.44308252e-01  1.00000000e+00  1.00000000e+00
  1.00000000e+00  1.00000000e+00  1.00000000e+00  3.34945995e-02  2.34726947e-01
  8.13757318e-01  1.00000000e+00  3.34945995e-02  2.34726947e-01  8.13757318e-01
  1.00000000e+00  3.34945995e-02  2.34726947e-01  8.13757318e-01  1.00000000e+00
Coordinates of each shell                  R   N=         444
 -6.43506426e+00  2.87007823e-02  9.03699132e-01 -6.43506426e+00  2.87007823e-02
  9.03699132e-01 -6.43506426e+00  2.87007823e-02  9.03699132e-01 -6.43506426e+00
  2.87007823e-02  9.03699132e-01 -6.43506426e+00  2.87007823e-02  9.03699132e-01
 -6.43506426e+00  2.87007823e-02  9.03699132e-01 -6.43506426e+00  2.87007823e-02
  9.03699132e-01 -6.43506426e+00  2.87007823e-02  9.03699132e-01 -5.01588024e+00
  8.73461840e-01  3.15348813e+00 -5.01588024e+00  8.73461840e-01  3.15348813e+00
 -5.01588024e+00  8.73461840e-01  3.15348813e+00 -5.01588024e+00  8.73461840e-01
  3.15348813e+00 -5.01588024e+00  8.73461840e-01  3.15348813e+00 -5.01588024e+00
  8.73461840e-01  3.15348813e+00 -5.01588024e+00  8.73461840e-01  3.15348813e+00
 -5.01588024e+00  8.73461840e-01  3.15348813e+00 -2.59032961e+00 -6.65682512e-01
  3.56396423e+00 -2.59032961e+00 -6.65682512e-01  3.56396423e+00 -2.59032961e+00
 -6.65682512e-01  3.56396423e+00 -2.59032961e+00 -6.65682512e-01  3.56396423e+00
 -2.59032961e+00 -6.65682512e-01  3.56396423e+00 -2.59032961e+00 -6.65682512e-01
  3.56396423e+00 -2.59032961e+00 -6.65682512e-01  3.56396423e+00 -2.59032961e+00
 -6.65682512e-01  3.56396423e+00 -8.52258055e-01 -5.18637941e-01  1.38476902e+00
 -8.52258055e-01 -5.18637941e-01  1.38476902e+00 -8.52258055e-01 -5.18637941e-01
  1.38476902e+00 -8.52258055e-01 -5.18637941e-01  1.38476902e+00 -8.52258055e-01
 -5.18637941e-01  1.38476902e+00 -8.52258055e-01 -5.18637941e-01  1.38476902e+00
 -8.52258055e-01 -5.18637941e-01  1.38476902e+00 -8.52258055e-01 -5.18637941e-01
  1.38476902e+00  4.31012819e+00 -1.69527460e+00 -6.42734481e-01  4.31012819e+00
 -1.69527460e+00 -6.42734481e-01  4.31012819e+00 -1.69527460e+00 -6.42734481e-01
  4.31012819e+00 -1.69527460e+00 -6.42734481e-01  4.31012819e+00 -1.69527460e+00
 -6.42734481e-01  4.31012819e+00 -1.69527460e+00 -6.42734481e-01  4.31012819e+00
 -1.69527460e+00 -6.42734481e-01  4.31012819e+00 -1.69527460e+00 -6.42734481e-01
  6.30013410e+00 -2.08657620e+00 -2.32936312e+00  6.30013410e+00 -2.08657620e+00
 -2.32936312e+00  6.30013410e+00 -2.08657620e+00 -2.32936312e+00  6.30013410e+00
 -2.08657620e+00 -2.32936312e+00  6.30013410e+00 -2.08657620e+00 -2.32936312e+00
  6.30013410e+00 -2.08657620e+00 -2.32936312e+00  6.30013410e+00 -2.08657620e+00
 -2.32936312e+00  6.30013410e+00 -2.08657620e+00 -2.32936312e+00  7.41781705e+00
 -3.53088843e-02 -3.57033303e+00  7.41781705e+00 -3.53088843e-02 -3.57033303e+00
  7.41781705e+00 -3.53088843e-02 -3.57033303e+00  7.41781705e+00 -3.53088843e-02
 -3.57033303e+00  7.41781705e+00 -3.53088843e-02 -3.57033303e+00  7.41781705e+00
 -3.53088843e-02 -3.57033303e+00  7.41781705e+00 -3.53088843e-02 -3.57033303e+00
  7.41781705e+00 -3.53088843e-02 -3.57033303e+00 -4.81074551e+00 -1.22262418e+00
 -9.66748953e-01 -4.81074551e+00 -1.22262418e+00 -9.66748953e-01 -4.81074551e+00
 -1.22262418e+00 -9.66748953e-01 -4.81074551e+00 -1.22262418e+00 -9.66748953e-01
 -4.81074551e+00 -1.22262418e+00 -9.66748953e-01 -4.81074551e+00 -1.22262418e+00
 -9.66748953e-01 -4.81074551e+00 -1.22262418e+00 -9.66748953e-01 -4.81074551e+00
 -1.22262418e+00 -9.66748953e-01 -2.19019722e+00 -2.70640311e-02 -1.00475631e+00
 -2.19019722e+00 -2.70640311e-02 -1.00475631e+00 -2.19019722e+00 -2.70640311e-02
 -1.00475631e+00 -2.19019722e+00 -2.70640311e-02 -1.00475631e+00 -2.19019722e+00
 -2.70640311e-02 -1.00475631e+00 -2.19019722e+00 -2.70640311e-02 -1.00475631e+00
 -2.19019722e+00 -2.70640311e-02 -1.00475631e+00 -2.19019722e+00 -2.70640311e-02
 -1.00475631e+00  4.52433543e+00  2.78704390e+00 -1.42541593e+00  4.52433543e+00
  2.78704390e+00 -1.42541593e+00  4.52433543e+00  2.78704390e+00 -1.42541593e+00
  4.52433543e+00  2.78704390e+00 -1.42541593e+00  4.52433543e+00  2.78704390e+00
 -1.42541593e+00  4.52433543e+00  2.78704390e+00 -1.42541593e+00  4.52433543e+00
  2.78704390e+00 -1.42541593e+00  4.52433543e+00  2.78704390e+00 -1.42541593e+00
  6.52358868e+00  2.40480390e+00 -3.11333842e+00  6.52358868e+00  2.40480390e+00
 -3.11333842e+00  6.52358868e+00  2.40480390e+00 -3.11333842e+00  6.52358868e+00
  2.40480390e+00 -3.11333842e+00  6.52358868e+00  2.40480390e+00 -3.11333842e+00
  6.52358868e+00  2.40480390e+00 -3.11333842e+00  6.52358868e+00  2.40480390e+00
 -3.11333842e+00  6.52358868e+00  2.40480390e+00 -3.11333842e+00 -6.23666531e+00
  7.21544060e-01  4.82088713e+00 -6.23666531e+00  7.21544060e-01  4.82088713e+00
 -4.53167228e+00  2.88378743e+00  2.94726568e+00 -4.53167228e+00  2.88378743e+00
  2.94726568e+00 -1.08394314e+00 -7.99309015e-01 -2.57508201e+00 -1.08394314e+00
 -7.99309015e-01 -2.57508201e+00 -2.39716674e+00  2.02627539e+00 -1.35530106e+00
 -2.39716674e+00  2.02627539e+00 -1.35530106e+00 -5.68735020e+00 -1.04783498e+00
 -2.83801349e+00 -5.68735020e+00 -1.04783498e+00 -2.83801349e+00 -4.60864672e+00
 -3.27077975e+00 -5.75636756e-01 -4.60864672e+00 -3.27077975e+00 -5.75636756e-01
 -3.08979044e+00 -2.65360822e+00  3.90600178e+00 -3.08979044e+00 -2.65360822e+00
  3.90600178e+00 -1.60774834e+00  3.08017624e-04  5.26139603e+00 -1.60774834e+00
  3.08017624e-04  5.26139603e+00  7.36967441e+00  4.01165233e+00 -4.07484999e+00
  7.36967441e+00  4.01165233e+00 -4.07484999e+00  8.96698434e+00 -3.40939677e-01
 -4.88476061e+00  8.96698434e+00 -3.40939677e-01 -4.88476061e+00  6.98218493e+00
 -3.99360458e+00 -2.67811727e+00  6.98218493e+00 -3.99360458e+00 -2.67811727e+00
  3.40139811e+00  7.49678459e-01 -1.65763375e-01  3.40139811e+00  7.49678459e-01
 -1.65763375e-01  3.40139811e+00  7.49678459e-01 -1.65763375e-01  3.40139811e+00
  7.49678459e-01 -1.65763375e-01  3.40139811e+00  7.49678459e-01 -1.65763375e-01
  3.40139811e+00  7.49678459e-01 -1.65763375e-01  3.40139811e+00  7.49678459e-01
 -1.65763375e-01  3.40139811e+00  7.49678459e-01 -1.65763375e-01  3.82849604e+00
  4.69286278e+00 -1.08725773e+00  3.82849604e+00  4.69286278e+00 -1.08725773e+00
  3.42434884e+00 -3.28715827e+00  3.06597732e-01  3.42434884e+00 -3.28715827e+00
  3.06597732e-01  1.29651675e+00  1.17798356e+00  1.74329569e+00  1.29651675e+00
  1.17798356e+00  1.74329569e+00  1.29651675e+00  1.17798356e+00  1.74329569e+00
  1.29651675e+00  1.17798356e+00  1.74329569e+00  1.29651675e+00  1.17798356e+00
  1.74329569e+00  1.29651675e+00  1.17798356e+00  1.74329569e+00  1.29651675e+00
  1.17798356e+00  1.74329569e+00  1.29651675e+00  1.17798356e+00  1.74329569e+00
  7.31171834e-01  3.19583078e+00  1.67433965e+00  7.31171834e-01  3.19583078e+00
  1.67433965e+00  2.04952650e+00  8.34839989e-01  3.64547212e+00  2.04952650e+00
  8.34839989e-01  3.64547212e+00 -8.66808816e+00 -1.46955711e+00  1.47323927e+00
 -8.66808816e+00 -1.46955711e+00  1.47323927e+00 -8.66808816e+00 -1.46955711e+00
  1.47323927e+00 -8.66808816e+00 -1.46955711e+00  1.47323927e+00 -8.66808816e+00
 -1.46955711e+00  1.47323927e+00 -8.66808816e+00 -1.46955711e+00  1.47323927e+00
 -8.66808816e+00 -1.46955711e+00  1.47323927e+00 -8.66808816e+00 -1.46955711e+00
  1.47323927e+00 -9.68810814e+00 -1.87451361e+00 -2.84544496e-01 -9.68810814e+00
 -1.87451361e+00 -2.84544496e-01 -9.94025466e+00 -4.04675151e-01  2.71102014e+00
 -9.94025466e+00 -4.04675151e-01  2.71102014e+00 -8.23438746e+00 -3.30424104e+00
  2.39138264e+00 -8.23438746e+00 -3.30424104e+00  2.39138264e+00
Total Energy                               R     -5.776059456572674e+02
Alpha Orbital Energies                     R   N=         302
 -1.43300272e+01 -1.43276467e+01 -1.02177851e+01 -1.02127029e+01 -1.02112360e+01
 -1.02102620e+01 -1.02085893e+01 -1.02057518e+01 -1.01988812e+01 -1.01948284e+01
 -1.01942218e+01 -1.01935646e+01 -1.01929824e+01 -1.01893912e+01 -9.43151631e-01
 -9.02448578e-01 -8.54532224e-01 -7.71480371e-01 -7.62022600e-01 -7.45835826e-01
 -7.25157277e-01 -6.75666200e-01 -6.51972973e-01 -6.24504158e-01 -6.06283731e-01
 -5.83446239e-01 -5.37848066e-01 -5.17814142e-01 -5.00484410e-01 -4.95088539e-01
 -4.78362843e-01 -4.61967893e-01 -4.53381703e-01 -4.35275329e-01 -4.28253209e-01
 -4.23518851e-01 -4.17135355e-01 -4.08791516e-01 -3.98289331e-01 -3.96586358e-01
 -3.83926975e-01 -3.71975381e-01 -3.67253559e-01 -3.57950677e-01 -3.48063562e-01
 -3.43087167e-01 -3.40482899e-01 -3.28062158e-01 -2.53608139e-01 -2.47890808e-01
 -2.17696533e-01 -2.04683017e-01 -1.54198679e-02 -1.09298383e-02 -9.32766353e-04
  9.07360232e-03  1.53423491e-02  1.95027343e-02  2.62233940e-02  3.28313615e-02
  3.83175469e-02  4.38529650e-02  4.92109293e-02  5.21900124e-02  5.57010863e-02
  6.10143338e-02  6.41124451e-02  7.11044762e-02  7.46696562e-02  8.18514579e-02
  8.44767124e-02  8.68448416e-02  9.13825037e-02  9.94224860e-02  1.04835904e-01
  1.05225042e-01  1.12078211e-01  1.15732237e-01  1.24514492e-01  1.31461257e-01
  1.33579541e-01  1.35694123e-01  1.41876596e-01  1.50183084e-01  1.53093338e-01
  1.59443052e-01  1.62850063e-01  1.68136008e-01  1.74171691e-01  1.76234294e-01
  1.79641163e-01  1.82178054e-01  1.88149149e-01  1.91977129e-01  1.99336076e-01
  2.05285053e-01  2.07823035e-01  2.13553451e-01  2.15305676e-01  2.19381904e-01
  2.19648198e-01  2.23917069e-01  2.25990542e-01  2.35492189e-01  2.35658466e-01
  2.42383644e-01  2.45504667e-01  2.50693160e-01  2.52390380e-01  2.57869560e-01
  2.60711281e-01  2.63084753e-01  2.64868266e-01  2.71168714e-01  2.74725669e-01
  2.77161413e-01  2.82242644e-01  2.83965393e-01  2.89606131e-01  2.93445954e-01
  3.02000959e-01  3.04376559e-01  3.10669618e-01  3.15526441e-01  3.17831736e-01
  3.31002607e-01  3.37666342e-01  3.38933132e-01  3.41069992e-01  3.52967476e-01
  3.60403034e-01  3.62827479e-01  3.72097927e-01  3.77000823e-01  3.86786505e-01