Generated by Psi4
     FORCE                           RHF                       TESTBAS
Number of atoms                            I               32
Charge                                     I                0
Multiplicity                               I                1
Number of electrons                        I              112
Number of alpha electrons                  I               56
Number of beta electrons                   I               56
Number of basis functions                  I              319
Number of independent functions            I              319
Atomic numbers                             I   N=          32
           6           6           6           6           6           6
           1           1           8           6           8           1
           1           6           1           6           1           1
           6           6           1           1           1           1
           7           1           1           6           1           1
           1           1
Nuclear charges                            R   N=          32
  6.00000000e+00  6.00000000e+00  6.00000000e+00  6.00000000e+00  6.00000000e+00
  6.00000000e+00  1.00000000e+00  1.00000000e+00  8.00000000e+00  6.00000000e+00
  8.00000000e+00  1.00000000e+00  1.00000000e+00  6.00000000e+00  1.00000000e+00
  6.00000000e+00  1.00000000e+00  1.00000000e+00  6.00000000e+00  6.00000000e+00
  1.00000000e+00  1.00000000e+00  1.00000000e+00  1.00000000e+00  7.00000000e+00
  1.00000000e+00  1.00000000e+00  6.00000000e+00  1.00000000e+00  1.00000000e+00
  1.00000000e+00  1.00000000e+00
Current cartesian coordinates              R   N=          96
 -2.82829759e-01 -1.56997259e+00  1.89622806e-01  1.63420548e+00 -3.18042583e+00
  1.04660243e+00  3.74271682e+00 -3.81381024e+00 -4.52514838e-01  3.85163442e+00
 -2.75703825e+00 -2.83395618e+00  1.95579117e+00 -1.15694752e+00 -3.71774258e+00
 -1.23974189e-01 -5.36980698e-01 -2.27171863e+00  5.20640395e+00 -5.07893469e+00
  2.28266557e-01 -1.59298137e+00  6.91160750e-01 -3.01243495e+00  2.48284156e+00
 -4.66177452e-01 -6.17641690e+00  5.04021270e+00 -1.26062605e+00 -6.58868466e+00
  5.62622588e+00 -3.12169566e+00 -4.71152286e+00  6.30911957e+00  3.69621977e-01
 -6.36036991e+00  5.20254496e+00 -2.10241458e+00 -8.46370078e+00 -2.51325163e+00
 -9.01309429e-01  1.85828914e+00  1.49900244e+00 -3.97272926e+00  2.93690443e+00
 -2.48029162e+00  1.82902451e+00  2.91718503e+00 -2.59738224e+00 -2.23014542e+00
  3.45139960e+00 -4.26876510e+00 -1.16903552e+00  7.79922390e-01 -4.99665687e+00
  2.38657921e+00  4.26443671e+00 -2.07623683e-01  2.30429986e+00  4.65421274e+00
 -2.34040708e+00  3.12650825e+00  1.29245506e+00 -2.63329494e-01  4.22500522e+00
  5.41677269e+00  1.58048432e+00  2.03960342e+00  3.64567442e+00 -2.30480378e-01
  9.86699114e-01  6.25979388e+00 -5.22622409e+00  5.03805985e+00  5.00479592e+00
 -5.11470608e+00  1.24215293e+00  5.99600311e+00 -6.58658331e+00  1.77610006e+00
  3.04255871e+00 -7.57127950e+00  5.60110103e+00  6.34376841e+00 -9.29877970e+00
  5.03664111e+00  5.30737262e+00 -7.67566887e+00  7.63160962e+00  6.73071011e+00
 -7.57577811e+00  4.61009010e+00  8.16382203e+00 -5.10013987e+00  6.14817925e+00
  3.43597332e+00
Integer atomic weights                     I   N=          32
          12          12          12          12          12          12
           1           1          15          12          15           1
           1          12           1          12           1           1
          12          12           1           1           1           1
          14           1           1          12           1           1
           1           1
Real atomic weights                        R   N=          32
  1.20000000e+01  1.20000000e+01  1.20000000e+01  1.20000000e+01  1.20000000e+01
  1.20000000e+01  1.00782503e+00  1.00782503e+00  1.59949146e+01  1.20000000e+01
  1.59949146e+01  1.00782503e+00  1.00782503e+00  1.20000000e+01  1.00782503e+00
  1.20000000e+01  1.00782503e+00  1.00782503e+00  1.20000000e+01  1.20000000e+01
  1.00782503e+00  1.00782503e+00  1.00782503e+00  1.00782503e+00  1.40030740e+01
  1.00782503e+00  1.00782503e+00  1.20000000e+01  1.00782503e+00  1.00782503e+00
  1.00782503e+00  1.00782503e+00
Number of primitive shells                 I              323
Number of contracted shells                I              154
Pure/Cartesian d shells                    I                1
Pure/Cartesian f shells                    I                1
Highest angular momentum                   I                2
Largest degree of contraction              I                6
Shell types                                I   N=         154
           0           0           1           0           1           2
           0           1           0           0           1           0
           1           2           0           1           0           0
           1           0           1           2           0           1
           0           0           1           0           1           2
           0           1           0           0           1           0
           1           2           0           1           0           0
           1           0           1           2           0           1
           0           0           0           0           0           0
           1           0           1           2           0           1
           0           0           1           0           1           2
           0           1           0           0           1           0
           1           2           0           1           0           0
           0           0           0           0           1           0
           1           2           0           1           0           0
           0           0           1           0           1           2
           0           1           0           0           0           0
           0           0           1           0           1           2
           0           1           0           0           1           0
           1           2           0           1           0           0
           0           0           0           0           0           0
           0           0           1           0           1           2
           0           1           0           0           0           0
           0           0           1           0           1           2
           0           1           0           0           0           0
           0           0           0           0
Number of primitives per shell             I   N=         154
           6           3           3           1           1           1
           1           1           6           3           3           1
           1           1           1           1           6           3
           3           1           1           1           1           1
           6           3           3           1           1           1
           1           1           6           3           3           1
           1           1           1           1           6           3
           3           1           1           1           1           1
           3           1           3           1           6           3
           3           1           1           1           1           1
           6           3           3           1           1           1
           1           1           6           3           3           1
           1           1           1           1           3           1
           3           1           6           3           3           1
           1           1           1           1           3           1
           6           3           3           1           1           1
           1           1           3           1           3           1
           6           3           3           1           1           1
           1           1           6           3           3           1
           1           1           1           1           3           1
           3           1           3           1           3           1
           6           3           3           1           1           1
           1           1           3           1           3           1
           6           3           3           1           1           1
           1           1           3           1           3           1
           3           1           3           1
Shell to atom map                          I   N=         154
           1           1           1           1           1           1
           1           1           2           2           2           2
           2           2           2           2           3           3
           3           3           3           3           3           3
           4           4           4           4           4           4
           4           4           5           5           5           5
           5           5           5           5           6           6
           6           6           6           6           6           6
           7           7           8           8           9           9
           9           9           9           9           9           9
          10          10          10          10          10          10
          10          10          11          11          11          11
          11          11          11          11          12          12
          13          13          14          14          14          14
          14          14          14          14          15          15
          16          16          16          16          16          16
          16          16          17          17          18          18
          19          19          19          19          19          19
          19          19          20          20          20          20
          20          20          20          20          21          21
          22          22          23          23          24          24
          25          25          25          25          25          25
          25          25          26          26          27          27
          28          28          28          28          28          28
          28          28          29          29          30          30
          31          31          32          32
Primitive exponents                        R   N=         323
  3.04752490e+03  4.57369510e+02  1.03948690e+02  2.92101550e+01  9.28666300e+00
  3.16392700e+00  7.86827240e+00  1.88128850e+00  5.44249300e-01  7.86827240e+00
  1.88128850e+00  5.44249300e-01  1.68714400e-01  1.68714400e-01  8.00000000e-01
  4.38000000e-02  4.38000000e-02  3.04752490e+03  4.57369510e+02  1.03948690e+02
  2.92101550e+01  9.28666300e+00  3.16392700e+00  7.86827240e+00  1.88128850e+00
  5.44249300e-01  7.86827240e+00  1.88128850e+00  5.44249300e-01  1.68714400e-01
  1.68714400e-01  8.00000000e-01  4.38000000e-02  4.38000000e-02  3.04752490e+03
  4.57369510e+02  1.03948690e+02  2.92101550e+01  9.28666300e+00  3.16392700e+00
  7.86827240e+00  1.88128850e+00  5.44249300e-01  7.86827240e+00  1.88128850e+00
  5.44249300e-01  1.68714400e-01  1.68714400e-01  8.00000000e-01  4.38000000e-02
  4.38000000e-02  3.04752490e+03  4.57369510e+02  1.03948690e+02  2.92101550e+01
  9.28666300e+00  3.16392700e+00  7.86827240e+00  1.88128850e+00  5.44249300e-01
  7.86827240e+00  1.88128850e+00  5.44249300e-01  1.68714400e-01  1.68714400e-01
  8.00000000e-01  4.38000000e-02  4.38000000e-02  3.04752490e+03  4.57369510e+02
  1.03948690e+02  2.92101550e+01  9.28666300e+00  3.16392700e+00  7.86827240e+00
  1.88128850e+00  5.44249300e-01  7.86827240e+00  1.88128850e+00  5.44249300e-01
  1.68714400e-01  1.68714400e-01  8.00000000e-01  4.38000000e-02  4.38000000e-02
  3.04752490e+03  4.57369510e+02  1.03948690e+02  2.92101550e+01  9.28666300e+00
  3.16392700e+00  7.86827240e+00  1.88128850e+00  5.44249300e-01  7.86827240e+00
  1.88128850e+00  5.44249300e-01  1.68714400e-01  1.68714400e-01  8.00000000e-01
  4.38000000e-02  4.38000000e-02  1.87311370e+01  2.82539370e+00  6.40121700e-01
  1.61277800e-01  1.87311370e+01  2.82539370e+00  6.40121700e-01  1.61277800e-01
  5.48467170e+03  8.25234950e+02  1.88046960e+02  5.29645000e+01  1.68975700e+01
  5.79963530e+00  1.55396160e+01  3.59993360e+00  1.01376180e+00  1.55396160e+01
  3.59993360e+00  1.01376180e+00  2.70005800e-01  2.70005800e-01  8.00000000e-01
  8.45000000e-02  8.45000000e-02  3.04752490e+03  4.57369510e+02  1.03948690e+02
  2.92101550e+01  9.28666300e+00  3.16392700e+00  7.86827240e+00  1.88128850e+00
  5.44249300e-01  7.86827240e+00  1.88128850e+00  5.44249300e-01  1.68714400e-01
  1.68714400e-01  8.00000000e-01  4.38000000e-02  4.38000000e-02  5.48467170e+03
  8.25234950e+02  1.88046960e+02  5.29645000e+01  1.68975700e+01  5.79963530e+00
  1.55396160e+01  3.59993360e+00  1.01376180e+00  1.55396160e+01  3.59993360e+00
  1.01376180e+00  2.70005800e-01  2.70005800e-01  8.00000000e-01  8.45000000e-02
  8.45000000e-02  1.87311370e+01  2.82539370e+00  6.40121700e-01  1.61277800e-01
  1.87311370e+01  2.82539370e+00  6.40121700e-01  1.61277800e-01  3.04752490e+03
  4.57369510e+02  1.03948690e+02  2.92101550e+01  9.28666300e+00  3.16392700e+00
  7.86827240e+00  1.88128850e+00  5.44249300e-01  7.86827240e+00  1.88128850e+00
  5.44249300e-01  1.68714400e-01  1.68714400e-01  8.00000000e-01  4.38000000e-02
  4.38000000e-02  1.87311370e+01  2.82539370e+00  6.40121700e-01  1.61277800e-01
  3.04752490e+03  4.57369510e+02  1.03948690e+02  2.92101550e+01  9.28666300e+00
  3.16392700e+00  7.86827240e+00  1.88128850e+00  5.44249300e-01  7.86827240e+00
  1.88128850e+00  5.44249300e-01  1.68714400e-01  1.68714400e-01  8.00000000e-01
  4.38000000e-02  4.38000000e-02  1.87311370e+01  2.82539370e+00  6.40121700e-01
  1.61277800e-01  1.87311370e+01  2.82539370e+00  6.40121700e-01  1.61277800e-01
  3.04752490e+03  4.57369510e+02  1.03948690e+02  2.92101550e+01  9.28666300e+00
  3.16392700e+00  7.86827240e+00  1.88128850e+00  5.44249300e-01  7.86827240e+00
  1.88128850e+00  5.44249300e-01  1.68714400e-01  1.68714400e-01  8.00000000e-01
  4.38000000e-02  4.38000000e-02  3.04752490e+03  4.57369510e+02  1.03948690e+02
  2.92101550e+01  9.28666300e+00  3.16392700e+00  7.86827240e+00  1.88128850e+00
  5.44249300e-01  7.86827240e+00  1.88128850e+00  5.44249300e-01  1.68714400e-01
  1.68714400e-01  8.00000000e-01  4.38000000e-02  4.38000000e-02  1.87311370e+01
  2.82539370e+00  6.40121700e-01  1.61277800e-01  1.87311370e+01  2.82539370e+00
  6.40121700e-01  1.61277800e-01  1.87311370e+01  2.82539370e+00  6.40121700e-01
  1.61277800e-01  1.87311370e+01  2.82539370e+00  6.40121700e-01  1.61277800e-01
  4.17351100e+03  6.27457900e+02  1.42902100e+02  4.02343300e+01  1.28202100e+01
  4.39043700e+00  1.16263580e+01  2.71628000e+00  7.72218000e-01  1.16263580e+01
  2.71628000e+00  7.72218000e-01  2.12031300e-01  2.12031300e-01  8.00000000e-01
  6.39000000e-02  6.39000000e-02  1.87311370e+01  2.82539370e+00  6.40121700e-01
  1.61277800e-01  1.87311370e+01  2.82539370e+00  6.40121700e-01  1.61277800e-01
  3.04752490e+03  4.57369510e+02  1.03948690e+02  2.92101550e+01  9.28666300e+00
  3.16392700e+00  7.86827240e+00  1.88128850e+00  5.44249300e-01  7.86827240e+00
  1.88128850e+00  5.44249300e-01  1.68714400e-01  1.68714400e-01  8.00000000e-01
  4.38000000e-02  4.38000000e-02  1.87311370e+01  2.82539370e+00  6.40121700e-01
  1.61277800e-01  1.87311370e+01  2.82539370e+00  6.40121700e-01  1.61277800e-01
  1.87311370e+01  2.82539370e+00  6.40121700e-01  1.61277800e-01  1.87311370e+01
  2.82539370e+00  6.40121700e-01  1.61277800e-01
Contraction coefficients                   R   N=         323
  1.83470016e-03  1.40373012e-02  6.88426061e-02  2.32184421e-01  4.67941342e-01
  3.62312032e-01 -1.19332409e-01 -1.60854212e-01  1.14345648e+00  6.89990956e-02
  3.16423980e-01  7.44308252e-01  1.00000000e+00  1.00000000e+00  1.00000000e+00
  1.00000000e+00  1.00000000e+00  1.83470016e-03  1.40373012e-02  6.88426061e-02
  2.32184421e-01  4.67941342e-01  3.62312032e-01 -1.19332409e-01 -1.60854212e-01
  1.14345648e+00  6.89990956e-02  3.16423980e-01  7.44308252e-01  1.00000000e+00
  1.00000000e+00  1.00000000e+00  1.00000000e+00  1.00000000e+00  1.83470016e-03
  1.40373012e-02  6.88426061e-02  2.32184421e-01  4.67941342e-01  3.62312032e-01
 -1.19332409e-01 -1.60854212e-01  1.14345648e+00  6.89990956e-02  3.16423980e-01
  7.44308252e-01  1.00000000e+00  1.00000000e+00  1.00000000e+00  1.00000000e+00
  1.00000000e+00  1.83470016e-03  1.40373012e-02  6.88426061e-02  2.32184421e-01
  4.67941342e-01  3.62312032e-01 -1.19332409e-01 -1.60854212e-01  1.14345648e+00
  6.89990956e-02  3.16423980e-01  7.44308252e-01  1.00000000e+00  1.00000000e+00
  1.00000000e+00  1.00000000e+00  1.00000000e+00  1.83470016e-03  1.40373012e-02
  6.88426061e-02  2.32184421e-01  4.67941342e-01  3.62312032e-01 -1.19332409e-01
 -1.60854212e-01  1.14345648e+00  6.89990956e-02  3.16423980e-01  7.44308252e-01
  1.00000000e+00  1.00000000e+00  1.00000000e+00  1.00000000e+00  1.00000000e+00
  1.83470016e-03  1.40373012e-02  6.88426061e-02  2.32184421e-01  4.67941342e-01
  3.62312032e-01 -1.19332409e-01 -1.60854212e-01  1.14345648e+00  6.89990956e-02
  3.16423980e-01  7.44308252e-01  1.00000000e+00  1.00000000e+00  1.00000000e+00
  1.00000000e+00  1.00000000e+00  3.34945995e-02  2.34726947e-01  8.13757318e-01
  1.00000000e+00  3.34945995e-02  2.34726947e-01  8.13757318e-01  1.00000000e+00
  1.83109981e-03  1.39500985e-02  6.84450927e-02  2.32714275e-01  4.70192950e-01
  3.58520862e-01 -1.10777504e-01 -1.48026305e-01  1.13076704e+00  7.08742995e-02
  3.39752798e-01  7.27158595e-01  1.00000000e+00  1.00000000e+00  1.00000000e+00
  1.00000000e+00  1.00000000e+00  1.83470016e-03  1.40373012e-02  6.88426061e-02
  2.32184421e-01  4.67941342e-01  3.62312032e-01 -1.19332409e-01 -1.60854212e-01
  1.14345648e+00  6.89990956e-02  3.16423980e-01  7.44308252e-01  1.00000000e+00
  1.00000000e+00  1.00000000e+00  1.00000000e+00  1.00000000e+00  1.83109981e-03
  1.39500985e-02  6.84450927e-02  2.32714275e-01  4.70192950e-01  3.58520862e-01
 -1.10777504e-01 -1.48026305e-01  1.13076704e+00  7.08742995e-02  3.39752798e-01
  7.27158595e-01  1.00000000e+00  1.00000000e+00  1.00000000e+00  1.00000000e+00
  1.00000000e+00  3.34945995e-02  2.34726947e-01  8.13757318e-01  1.00000000e+00
  3.34945995e-02  2.34726947e-01  8.13757318e-01  1.00000000e+00  1.83470016e-03
  1.40373012e-02  6.88426061e-02  2.32184421e-01  4.67941342e-01  3.62312032e-01
 -1.19332409e-01 -1.60854212e-01  1.14345648e+00  6.89990956e-02  3.16423980e-01
  7.44308252e-01  1.00000000e+00  1.00000000e+00  1.00000000e+00  1.00000000e+00
  1.00000000e+00  3.34945995e-02  2.34726947e-01  8.13757318e-01  1.00000000e+00
  1.83470016e-03  1.40373012e-02  6.88426061e-02  2.32184421e-01  4.67941342e-01
  3.62312032e-01 -1.19332409e-01 -1.60854212e-01  1.14345648e+00  6.89990956e-02
  3.16423980e-01  7.44308252e-01  1.00000000e+00  1.00000000e+00  1.00000000e+00
  1.00000000e+00  1.00000000e+00  3.34945995e-02  2.34726947e-01  8.13757318e-01
  1.00000000e+00  3.34945995e-02  2.34726947e-01  8.13757318e-01  1.00000000e+00
  1.83470016e-03  1.40373012e-02  6.88426061e-02  2.32184421e-01  4.67941342e-01
  3.62312032e-01 -1.19332409e-01 -1.60854212e-01  1.14345648e+00  6.89990956e-02
  3.16423980e-01  7.44308252e-01  1.00000000e+00  1.00000000e+00  1.00000000e+00
  1.00000000e+00  1.00000000e+00  1.83470016e-03  1.40373012e-02  6.88426061e-02
  2.32184421e-01  4.67941342e-01  3.62312032e-01 -1.19332409e-01 -1.60854212e-01
  1.14345648e+00  6.89990956e-02  3.16423980e-01  7.44308252e-01  1.00000000e+00
  1.00000000e+00  1.00000000e+00  1.00000000e+00  1.00000000e+00  3.34945995e-02
  2.34726947e-01  8.13757318e-01  1.00000000e+00  3.34945995e-02  2.34726947e-01
  8.13757318e-01  1.00000000e+00  3.34945995e-02  2.34726947e-01  8.13757318e-01
  1.00000000e+00  3.34945995e-02  2.34726947e-01  8.13757318e-01  1.00000000e+00
  1.83479944e-03  1.39949958e-02  6.85869792e-02  2.32240930e-01  4.69069858e-01
  3.60454891e-01 -1.14961023e-01 -1.69118034e-01  1.14585223e+00  6.75800232e-02
  3.23907111e-01  7.40895255e-01  1.00000000e+00  1.00000000e+00  1.00000000e+00
  1.00000000e+00  1.00000000e+00  3.34945995e-02  2.34726947e-01  8.13757318e-01
  1.00000000e+00  3.34945995e-02  2.34726947e-01  8.13757318e-01  1.00000000e+00
  1.83470016e-03  1.40373012e-02  6.88426061e-02  2.32184421e-01  4.67941342e-01
  3.62312032e-01 -1.19332409e-01 -1.60854212e-01  1.14345648e+00  6.89990956e-02
  3.16423980e-01  7.44308252e-01  1.00000000e+00  1.00000000e+00  1.00000000e+00
  1.00000000e+00  1.00000000e+00  3.34945995e-02  2.34726947e-01  8.13757318e-01
  1.00000000e+00  3.34945995e-02  2.34726947e-01  8.13757318e-01  1.00000000e+00
  3.34945995e-02  2.34726947e-01  8.13757318e-01  1.00000000e+00  3.34945995e-02
  2.34726947e-01  8.13757318e-01  1.00000000e+00
Coordinates of each shell                  R   N=         462
 -2.82829759e-01 -1.56997259e+00  1.89622806e-01 -2.82829759e-01 -1.56997259e+00
  1.89622806e-01 -2.82829759e-01 -1.56997259e+00  1.89622806e-01 -2.82829759e-01
 -1.56997259e+00  1.89622806e-01 -2.82829759e-01 -1.56997259e+00  1.89622806e-01
 -2.82829759e-01 -1.56997259e+00  1.89622806e-01 -2.82829759e-01 -1.56997259e+00
  1.89622806e-01 -2.82829759e-01 -1.56997259e+00  1.89622806e-01  1.63420548e+00
 -3.18042583e+00  1.04660243e+00  1.63420548e+00 -3.18042583e+00  1.04660243e+00
  1.63420548e+00 -3.18042583e+00  1.04660243e+00  1.63420548e+00 -3.18042583e+00
  1.04660243e+00  1.63420548e+00 -3.18042583e+00  1.04660243e+00  1.63420548e+00
 -3.18042583e+00  1.04660243e+00  1.63420548e+00 -3.18042583e+00  1.04660243e+00
  1.63420548e+00 -3.18042583e+00  1.04660243e+00  3.74271682e+00 -3.81381024e+00
 -4.52514838e-01  3.74271682e+00 -3.81381024e+00 -4.52514838e-01  3.74271682e+00
 -3.81381024e+00 -4.52514838e-01  3.74271682e+00 -3.81381024e+00 -4.52514838e-01
  3.74271682e+00 -3.81381024e+00 -4.52514838e-01  3.74271682e+00 -3.81381024e+00
 -4.52514838e-01  3.74271682e+00 -3.81381024e+00 -4.52514838e-01  3.74271682e+00
 -3.81381024e+00 -4.52514838e-01  3.85163442e+00 -2.75703825e+00 -2.83395618e+00
  3.85163442e+00 -2.75703825e+00 -2.83395618e+00  3.85163442e+00 -2.75703825e+00
 -2.83395618e+00  3.85163442e+00 -2.75703825e+00 -2.83395618e+00  3.85163442e+00
 -2.75703825e+00 -2.83395618e+00  3.85163442e+00 -2.75703825e+00 -2.83395618e+00
  3.85163442e+00 -2.75703825e+00 -2.83395618e+00  3.85163442e+00 -2.75703825e+00
 -2.83395618e+00  1.95579117e+00 -1.15694752e+00 -3.71774258e+00  1.95579117e+00
 -1.15694752e+00 -3.71774258e+00  1.95579117e+00 -1.15694752e+00 -3.71774258e+00
  1.95579117e+00 -1.15694752e+00 -3.71774258e+00  1.95579117e+00 -1.15694752e+00
 -3.71774258e+00  1.95579117e+00 -1.15694752e+00 -3.71774258e+00  1.95579117e+00
 -1.15694752e+00 -3.71774258e+00  1.95579117e+00 -1.15694752e+00 -3.71774258e+00
 -1.23974189e-01 -5.36980698e-01 -2.27171863e+00 -1.23974189e-01 -5.36980698e-01
 -2.27171863e+00 -1.23974189e-01 -5.36980698e-01 -2.27171863e+00 -1.23974189e-01
 -5.36980698e-01 -2.27171863e+00 -1.23974189e-01 -5.36980698e-01 -2.27171863e+00
 -1.23974189e-01 -5.36980698e-01 -2.27171863e+00 -1.23974189e-01 -5.36980698e-01
 -2.27171863e+00 -1.23974189e-01 -5.36980698e-01 -2.27171863e+00  5.20640395e+00
 -5.07893469e+00  2.28266557e-01  5.20640395e+00 -5.07893469e+00  2.28266557e-01
 -1.59298137e+00  6.91160750e-01 -3.01243495e+00 -1.59298137e+00  6.91160750e-01
 -3.01243495e+00  2.48284156e+00 -4.66177452e-01 -6.17641690e+00  2.48284156e+00
 -4.66177452e-01 -6.17641690e+00  2.48284156e+00 -4.66177452e-01 -6.17641690e+00
  2.48284156e+00 -4.66177452e-01 -6.17641690e+00  2.48284156e+00 -4.66177452e-01
 -6.17641690e+00  2.48284156e+00 -4.66177452e-01 -6.17641690e+00  2.48284156e+00
 -4.66177452e-01 -6.17641690e+00  2.48284156e+00 -4.66177452e-01 -6.17641690e+00
  5.04021270e+00 -1.26062605e+00 -6.58868466e+00  5.04021270e+00 -1.26062605e+00
 -6.58868466e+00  5.04021270e+00 -1.26062605e+00 -6.58868466e+00  5.04021270e+00
 -1.26062605e+00 -6.58868466e+00  5.04021270e+00 -1.26062605e+00 -6.58868466e+00
  5.04021270e+00 -1.26062605e+00 -6.58868466e+00  5.04021270e+00 -1.26062605e+00
 -6.58868466e+00  5.04021270e+00 -1.26062605e+00 -6.58868466e+00  5.62622588e+00
 -3.12169566e+00 -4.71152286e+00  5.62622588e+00 -3.12169566e+00 -4.71152286e+00
  5.62622588e+00 -3.12169566e+00 -4.71152286e+00  5.62622588e+00 -3.12169566e+00
 -4.71152286e+00  5.62622588e+00 -3.12169566e+00 -4.71152286e+00  5.62622588e+00
 -3.12169566e+00 -4.71152286e+00  5.62622588e+00 -3.12169566e+00 -4.71152286e+00
  5.62622588e+00 -3.12169566e+00 -4.71152286e+00  6.30911957e+00  3.69621977e-01
 -6.36036991e+00  6.30911957e+00  3.69621977e-01 -6.36036991e+00  5.20254496e+00
 -2.10241458e+00 -8.46370078e+00  5.20254496e+00 -2.10241458e+00 -8.46370078e+00
 -2.51325163e+00 -9.01309429e-01  1.85828914e+00 -2.51325163e+00 -9.01309429e-01
  1.85828914e+00 -2.51325163e+00 -9.01309429e-01  1.85828914e+00 -2.51325163e+00
 -9.01309429e-01  1.85828914e+00 -2.51325163e+00 -9.01309429e-01  1.85828914e+00
 -2.51325163e+00 -9.01309429e-01  1.85828914e+00 -2.51325163e+00 -9.01309429e-01
  1.85828914e+00 -2.51325163e+00 -9.01309429e-01  1.85828914e+00  1.49900244e+00
 -3.97272926e+00  2.93690443e+00  1.49900244e+00 -3.97272926e+00  2.93690443e+00
 -2.48029162e+00  1.82902451e+00  2.91718503e+00 -2.48029162e+00  1.82902451e+00
  2.91718503e+00 -2.48029162e+00  1.82902451e+00  2.91718503e+00 -2.48029162e+00
  1.82902451e+00  2.91718503e+00 -2.48029162e+00  1.82902451e+00  2.91718503e+00
 -2.48029162e+00  1.82902451e+00  2.91718503e+00 -2.48029162e+00  1.82902451e+00
  2.91718503e+00 -2.48029162e+00  1.82902451e+00  2.91718503e+00 -2.59738224e+00
 -2.23014542e+00  3.45139960e+00 -2.59738224e+00 -2.23014542e+00  3.45139960e+00
 -4.26876510e+00 -1.16903552e+00  7.79922390e-01 -4.26876510e+00 -1.16903552e+00
  7.79922390e-01 -4.99665687e+00  2.38657921e+00  4.26443671e+00 -4.99665687e+00
  2.38657921e+00  4.26443671e+00 -4.99665687e+00  2.38657921e+00  4.26443671e+00
 -4.99665687e+00  2.38657921e+00  4.26443671e+00 -4.99665687e+00  2.38657921e+00
  4.26443671e+00 -4.99665687e+00  2.38657921e+00  4.26443671e+00 -4.99665687e+00
  2.38657921e+00  4.26443671e+00 -4.99665687e+00  2.38657921e+00  4.26443671e+00
 -2.07623683e-01  2.30429986e+00  4.65421274e+00 -2.07623683e-01  2.30429986e+00
  4.65421274e+00 -2.07623683e-01  2.30429986e+00  4.65421274e+00 -2.07623683e-01
  2.30429986e+00  4.65421274e+00 -2.07623683e-01  2.30429986e+00  4.65421274e+00
 -2.07623683e-01  2.30429986e+00  4.65421274e+00 -2.07623683e-01  2.30429986e+00
  4.65421274e+00 -2.07623683e-01  2.30429986e+00  4.65421274e+00 -2.34040708e+00
  3.12650825e+00  1.29245506e+00 -2.34040708e+00  3.12650825e+00  1.29245506e+00
 -2.63329494e-01  4.22500522e+00  5.41677269e+00 -2.63329494e-01  4.22500522e+00
  5.41677269e+00  1.58048432e+00  2.03960342e+00  3.64567442e+00  1.58048432e+00
  2.03960342e+00  3.64567442e+00 -2.30480378e-01  9.86699114e-01  6.25979388e+00
 -2.30480378e-01  9.86699114e-01  6.25979388e+00 -5.22622409e+00  5.03805985e+00
  5.00479592e+00 -5.22622409e+00  5.03805985e+00  5.00479592e+00 -5.22622409e+00
  5.03805985e+00  5.00479592e+00 -5.22622409e+00  5.03805985e+00  5.00479592e+00
 -5.22622409e+00  5.03805985e+00  5.00479592e+00 -5.22622409e+00  5.03805985e+00
  5.00479592e+00 -5.22622409e+00  5.03805985e+00  5.00479592e+00 -5.22622409e+00
  5.03805985e+00  5.00479592e+00 -5.11470608e+00  1.24215293e+00  5.99600311e+00
 -5.11470608e+00  1.24215293e+00  5.99600311e+00 -6.58658331e+00  1.77610006e+00
  3.04255871e+00 -6.58658331e+00  1.77610006e+00  3.04255871e+00 -7.57127950e+00
  5.60110103e+00  6.34376841e+00 -7.57127950e+00  5.60110103e+00  6.34376841e+00
 -7.57127950e+00  5.60110103e+00  6.34376841e+00 -7.57127950e+00  5.60110103e+00
  6.34376841e+00 -7.57127950e+00  5.60110103e+00  6.34376841e+00 -7.57127950e+00
  5.60110103e+00  6.34376841e+00 -7.57127950e+00  5.60110103e+00  6.34376841e+00
 -7.57127950e+00  5.60110103e+00  6.34376841e+00 -9.29877970e+00  5.03664111e+00
  5.30737262e+00 -9.29877970e+00  5.03664111e+00  5.30737262e+00 -7.67566887e+00
  7.63160962e+00  6.73071011e+00 -7.67566887e+00  7.63160962e+00  6.73071011e+00
 -7.57577811e+00  4.61009010e+00  8.16382203e+00 -7.57577811e+00  4.61009010e+00
  8.16382203e+00 -5.10013987e+00  6.14817925e+00  3.43597332e+00 -5.10013987e+00
  6.14817925e+00  3.43597332e+00
Total Energy                               R     -6.727083444303672e+02
Alpha Orbital Energies                     R   N=         319
 -1.92025304e+01 -1.92018149e+01 -1.43261583e+01 -1.03113758e+01 -1.02553199e+01
 -1.02534367e+01 -1.02095670e+01 -1.02061533e+01 -1.02036910e+01 -1.02024396e+01
 -1.02002011e+01 -1.01952890e+01 -1.01950335e+01 -1.01921327e+01 -1.01677626e+01
 -1.13264322e+00 -1.04086805e+00 -9.06066336e-01 -8.67793252e-01 -8.08856737e-01
 -7.64977954e-01 -7.58713940e-01 -7.03166378e-01 -6.88466442e-01 -6.67750785e-01
 -6.37531252e-01 -6.28256540e-01 -6.07703149e-01 -5.71092999e-01 -5.30529015e-01
 -5.25315963e-01 -5.21511552e-01 -4.92108454e-01 -4.82096216e-01 -4.63848073e-01
 -4.53549602e-01 -4.52095666e-01 -4.47579696e-01 -4.26125706e-01 -4.16156187e-01
 -4.02745798e-01 -3.95409912e-01 -3.94572913e-01 -3.93284229e-01 -3.76038126e-01
 -3.72195117e-01 -3.69251814e-01 -3.63346745e-01 -3.55083450e-01 -3.45730759e-01
 -3.29555310e-01 -3.24459125e-01 -3.09438003e-01 -2.50824125e-01 -2.26858288e-01
 -2.13773149e-01 -1.66814715e-02 -1.92005695e-03  2.35017557e-03  1.00783482e-02
  1.32952824e-02  1.94201425e-02  2.41543602e-02  3.02620032e-02  3.53792845e-02
  3.68104648e-02  4.19357769e-02  4.87982994e-02  5.08246679e-02  5.31413970e-02
  5.83302014e-02  6.64479197e-02  7.35390221e-02  8.13796145e-02  8.27787506e-02