Generated by Psi4
     FORCE                           RHF                       TESTBAS
Number of atoms                            I               34
Charge                                     I                0
Multiplicity                               I                1
Number of electrons                        I              142
Number of alpha electrons                  I               71
Number of beta electrons                   I               71
Number of basis functions                  I              395
Number of independent functions            I              395
Atomic numbers                             I   N=          34
           6           7           6           7           6           6
           6           6           6           1           6           6
           6           6           6           6           1           1
           1           1          17           6           6           1
           1           6           1           1           1           1
           1           1           1           1
Nuclear charges                            R   N=          34
  6.00000000e+00  7.00000000e+00  6.00000000e+00  7.00000000e+00  6.00000000e+00
  6.00000000e+00  6.00000000e+00  6.00000000e+00  6.00000000e+00  1.00000000e+00
  6.00000000e+00  6.00000000e+00  6.00000000e+00  6.00000000e+00  6.00000000e+00
  6.00000000e+00  1.00000000e+00  1.00000000e+00  1.00000000e+00  1.00000000e+00
  1.70000000e+01  6.00000000e+00  6.00000000e+00  1.00000000e+00  1.00000000e+00
  6.00000000e+00  1.00000000e+00  1.00000000e+00  1.00000000e+00  1.00000000e+00
  1.00000000e+00  1.00000000e+00  1.00000000e+00  1.00000000e+00
Current cartesian coordinates              R   N=         102
 -2.24568283e+00  2.01313923e+00 -1.82098609e+00 -1.20717668e+00  3.21609388e+00
 -3.94996523e+00 -6.42310502e-01  1.71652684e+00 -6.22657155e+00  2.01769909e+00
 -1.34559524e+00 -3.90834567e+00 -8.07519404e-02 -1.05425350e+00 -5.66172933e+00
  1.59863681e+00 -8.59447647e-01 -1.56433921e+00 -9.01421458e-01  3.39205084e-02
 -5.88111164e-01 -4.21614739e+00 -2.68744612e-01  2.57266036e+00 -1.92249399e+00
 -1.09121186e+00  1.58156045e+00 -8.93401401e-01 -2.59953156e+00  2.51472372e+00
  3.72446199e+00 -1.21946011e+00  2.58899951e-01  3.91329542e+00  2.22207854e-01
  2.47994704e+00  5.96292315e+00 -8.80860569e-02  4.11509224e+00  7.84120255e+00
 -1.85926787e+00  3.56560429e+00  7.66775208e+00 -3.30855325e+00  1.35963629e+00
  5.63370106e+00 -2.98611380e+00 -2.82378107e-01  2.47030858e+00  1.61346453e+00
  2.91978404e+00  6.08848156e+00  1.05598931e+00  5.81665946e+00  9.42811744e+00
 -2.11203558e+00  4.84561415e+00  9.11965258e+00 -4.69515791e+00  9.23221540e-01
 -5.45245863e+00 -1.72171669e+00  5.29827304e+00 -4.53813577e+00  2.82876160e+00
 -7.40240468e-01 -5.52071039e+00  1.71445804e+00  1.43578546e+00 -5.60087746e+00
  4.34042003e+00 -1.62648393e+00 -7.30134025e+00  2.36713146e+00  2.21793872e+00
 -2.10601298e+00  5.73393319e+00 -4.58607182e+00 -2.16211254e+00  6.92383420e+00
 -2.89722423e+00 -3.99530558e+00  5.73944772e+00 -5.47815218e+00 -7.77120337e-01
  6.58274048e+00 -5.92718210e+00  5.49155890e+00 -4.08802206e+00 -2.00614051e+00
  9.88264091e-01  2.58549256e+00 -7.16660719e+00 -2.25360487e+00  1.80115981e+00
 -7.55784716e+00  4.23797973e-01 -1.97495015e+00 -7.44586420e+00 -1.80185383e+00
 -1.98170333e+00 -4.94954108e+00
Integer atomic weights                     I   N=          34
          12          14          12          14          12          12
          12          12          12           1          12          12
          12          12          12          12           1           1
           1           1          34          12          12           1
           1          12           1           1           1           1
           1           1           1           1
Real atomic weights                        R   N=          34
  1.20000000e+01  1.40030740e+01  1.20000000e+01  1.40030740e+01  1.20000000e+01
  1.20000000e+01  1.20000000e+01  1.20000000e+01  1.20000000e+01  1.00782503e+00
  1.20000000e+01  1.20000000e+01  1.20000000e+01  1.20000000e+01  1.20000000e+01
  1.20000000e+01  1.00782503e+00  1.00782503e+00  1.00782503e+00  1.00782503e+00
  3.49688527e+01  1.20000000e+01  1.20000000e+01  1.00782503e+00  1.00782503e+00
  1.20000000e+01  1.00782503e+00  1.00782503e+00  1.00782503e+00  1.00782503e+00
  1.00782503e+00  1.00782503e+00  1.00782503e+00  1.00782503e+00
Number of primitive shells                 I              395
Number of contracted shells                I              184
Pure/Cartesian d shells                    I                1
Pure/Cartesian f shells                    I                1
Highest angular momentum                   I                2
Largest degree of contraction              I                6
Shell types                                I   N=         184
           0           0           1           0           1           2
           0           1           0           0           1           0
           1           2           0           1           0           0
           1           0           1           2           0           1
           0           0           1           0           1           2
           0           1           0           0           1           0
           1           2           0           1           0           0
           1           0           1           2           0           1
           0           0           1           0           1           2
           0           1           0           0           1           0
           1           2           0           1           0           0
           1           0           1           2           0           1
           0           0           0           0           1           0
           1           2           0           1           0           0
           1           0           1           2           0           1
           0           0           1           0           1           2
           0           1           0           0           1           0
           1           2           0           1           0           0
           1           0           1           2           0           1
           0           0           1           0           1           2
           0           1           0           0           0           0
           0           0           0           0           0           0
           1           0           1           0           1           2
           0           1           0           0           1           0
           1           2           0           1           0           0
           1           0           1           2           0           1
           0           0           0           0           0           0
           1           0           1           2           0           1
           0           0           0           0           0           0
           0           0           0           0           0           0
           0           0           0           0
Number of primitives per shell             I   N=         184
           6           3           3           1           1           1
           1           1           6           3           3           1
           1           1           1           1           6           3
           3           1           1           1           1           1
           6           3           3           1           1           1
           1           1           6           3           3           1
           1           1           1           1           6           3
           3           1           1           1           1           1
           6           3           3           1           1           1
           1           1           6           3           3           1
           1           1           1           1           6           3
           3           1           1           1           1           1
           3           1           6           3           3           1
           1           1           1           1           6           3
           3           1           1           1           1           1
           6           3           3           1           1           1
           1           1           6           3           3           1
           1           1           1           1           6           3
           3           1           1           1           1           1
           6           3           3           1           1           1
           1           1           3           1           3           1
           3           1           3           1           6           6
           6           3           3           1           1           1
           1           1           6           3           3           1
           1           1           1           1           6           3
           3           1           1           1           1           1
           3           1           3           1           6           3
           3           1           1           1           1           1
           3           1           3           1           3           1
           3           1           3           1           3           1
           3           1           3           1
Shell to atom map                          I   N=         184
           1           1           1           1           1           1
           1           1           2           2           2           2
           2           2           2           2           3           3
           3           3           3           3           3           3
           4           4           4           4           4           4
           4           4           5           5           5           5
           5           5           5           5           6           6
           6           6           6           6           6           6
           7           7           7           7           7           7
           7           7           8           8           8           8
           8           8           8           8           9           9
           9           9           9           9           9           9
          10          10          11          11          11          11
          11          11          11          11          12          12
          12          12          12          12          12          12
          13          13          13          13          13          13
          13          13          14          14          14          14
          14          14          14          14          15          15
          15          15          15          15          15          15
          16          16          16          16          16          16
          16          16          17          17          18          18
          19          19          20          20          21          21
          21          21          21          21          21          21
          21          21          22          22          22          22
          22          22          22          22          23          23
          23          23          23          23          23          23
          24          24          25          25          26          26
          26          26          26          26          26          26
          27          27          28          28          29          29
          30          30          31          31          32          32
          33          33          34          34
Primitive exponents                        R   N=         395
  3.04752490e+03  4.57369510e+02  1.03948690e+02  2.92101550e+01  9.28666300e+00
  3.16392700e+00  7.86827240e+00  1.88128850e+00  5.44249300e-01  7.86827240e+00
  1.88128850e+00  5.44249300e-01  1.68714400e-01  1.68714400e-01  8.00000000e-01
  4.38000000e-02  4.38000000e-02  4.17351100e+03  6.27457900e+02  1.42902100e+02
  4.02343300e+01  1.28202100e+01  4.39043700e+00  1.16263580e+01  2.71628000e+00
  7.72218000e-01  1.16263580e+01  2.71628000e+00  7.72218000e-01  2.12031300e-01
  2.12031300e-01  8.00000000e-01  6.39000000e-02  6.39000000e-02  3.04752490e+03
  4.57369510e+02  1.03948690e+02  2.92101550e+01  9.28666300e+00  3.16392700e+00
  7.86827240e+00  1.88128850e+00  5.44249300e-01  7.86827240e+00  1.88128850e+00
  5.44249300e-01  1.68714400e-01  1.68714400e-01  8.00000000e-01  4.38000000e-02
  4.38000000e-02  4.17351100e+03  6.27457900e+02  1.42902100e+02  4.02343300e+01
  1.28202100e+01  4.39043700e+00  1.16263580e+01  2.71628000e+00  7.72218000e-01
  1.16263580e+01  2.71628000e+00  7.72218000e-01  2.12031300e-01  2.12031300e-01
  8.00000000e-01  6.39000000e-02  6.39000000e-02  3.04752490e+03  4.57369510e+02
  1.03948690e+02  2.92101550e+01  9.28666300e+00  3.16392700e+00  7.86827240e+00
  1.88128850e+00  5.44249300e-01  7.86827240e+00  1.88128850e+00  5.44249300e-01
  1.68714400e-01  1.68714400e-01  8.00000000e-01  4.38000000e-02  4.38000000e-02
  3.04752490e+03  4.57369510e+02  1.03948690e+02  2.92101550e+01  9.28666300e+00
  3.16392700e+00  7.86827240e+00  1.88128850e+00  5.44249300e-01  7.86827240e+00
  1.88128850e+00  5.44249300e-01  1.68714400e-01  1.68714400e-01  8.00000000e-01
  4.38000000e-02  4.38000000e-02  3.04752490e+03  4.57369510e+02  1.03948690e+02
  2.92101550e+01  9.28666300e+00  3.16392700e+00  7.86827240e+00  1.88128850e+00
  5.44249300e-01  7.86827240e+00  1.88128850e+00  5.44249300e-01  1.68714400e-01
  1.68714400e-01  8.00000000e-01  4.38000000e-02  4.38000000e-02  3.04752490e+03
  4.57369510e+02  1.03948690e+02  2.92101550e+01  9.28666300e+00  3.16392700e+00
  7.86827240e+00  1.88128850e+00  5.44249300e-01  7.86827240e+00  1.88128850e+00
  5.44249300e-01  1.68714400e-01  1.68714400e-01  8.00000000e-01  4.38000000e-02
  4.38000000e-02  3.04752490e+03  4.57369510e+02  1.03948690e+02  2.92101550e+01
  9.28666300e+00  3.16392700e+00  7.86827240e+00  1.88128850e+00  5.44249300e-01
  7.86827240e+00  1.88128850e+00  5.44249300e-01  1.68714400e-01  1.68714400e-01
  8.00000000e-01  4.38000000e-02  4.38000000e-02  1.87311370e+01  2.82539370e+00
  6.40121700e-01  1.61277800e-01  3.04752490e+03  4.57369510e+02  1.03948690e+02
  2.92101550e+01  9.28666300e+00  3.16392700e+00  7.86827240e+00  1.88128850e+00
  5.44249300e-01  7.86827240e+00  1.88128850e+00  5.44249300e-01  1.68714400e-01
  1.68714400e-01  8.00000000e-01  4.38000000e-02  4.38000000e-02  3.04752490e+03
  4.57369510e+02  1.03948690e+02  2.92101550e+01  9.28666300e+00  3.16392700e+00
  7.86827240e+00  1.88128850e+00  5.44249300e-01  7.86827240e+00  1.88128850e+00
  5.44249300e-01  1.68714400e-01  1.68714400e-01  8.00000000e-01  4.38000000e-02
  4.38000000e-02  3.04752490e+03  4.57369510e+02  1.03948690e+02  2.92101550e+01
  9.28666300e+00  3.16392700e+00  7.86827240e+00  1.88128850e+00  5.44249300e-01
  7.86827240e+00  1.88128850e+00  5.44249300e-01  1.68714400e-01  1.68714400e-01
  8.00000000e-01  4.38000000e-02  4.38000000e-02  3.04752490e+03  4.57369510e+02
  1.03948690e+02  2.92101550e+01  9.28666300e+00  3.16392700e+00  7.86827240e+00
  1.88128850e+00  5.44249300e-01  7.86827240e+00  1.88128850e+00  5.44249300e-01
  1.68714400e-01  1.68714400e-01  8.00000000e-01  4.38000000e-02  4.38000000e-02
  3.04752490e+03  4.57369510e+02  1.03948690e+02  2.92101550e+01  9.28666300e+00
  3.16392700e+00  7.86827240e+00  1.88128850e+00  5.44249300e-01  7.86827240e+00
  1.88128850e+00  5.44249300e-01  1.68714400e-01  1.68714400e-01  8.00000000e-01
  4.38000000e-02  4.38000000e-02  3.04752490e+03  4.57369510e+02  1.03948690e+02
  2.92101550e+01  9.28666300e+00  3.16392700e+00  7.86827240e+00  1.88128850e+00
  5.44249300e-01  7.86827240e+00  1.88128850e+00  5.44249300e-01  1.68714400e-01
  1.68714400e-01  8.00000000e-01  4.38000000e-02  4.38000000e-02  1.87311370e+01
  2.82539370e+00  6.40121700e-01  1.61277800e-01  1.87311370e+01  2.82539370e+00
  6.40121700e-01  1.61277800e-01  1.87311370e+01  2.82539370e+00  6.40121700e-01
  1.61277800e-01  1.87311370e+01  2.82539370e+00  6.40121700e-01  1.61277800e-01
  2.51801000e+04  3.78035000e+03  8.60474000e+02  2.42145000e+02  7.73349000e+01
  2.62470000e+01  4.91765000e+02  1.16984000e+02  3.74153000e+01  1.37834000e+01
  5.45215000e+00  2.22588000e+00  4.91765000e+02  1.16984000e+02  3.74153000e+01
  1.37834000e+01  5.45215000e+00  2.22588000e+00  3.18649000e+00  1.14427000e+00
  4.20377000e-01  3.18649000e+00  1.14427000e+00  4.20377000e-01  1.42657000e-01
  1.42657000e-01  7.50000000e-01  4.83000000e-02  4.83000000e-02  3.04752490e+03
  4.57369510e+02  1.03948690e+02  2.92101550e+01  9.28666300e+00  3.16392700e+00
  7.86827240e+00  1.88128850e+00  5.44249300e-01  7.86827240e+00  1.88128850e+00
  5.44249300e-01  1.68714400e-01  1.68714400e-01  8.00000000e-01  4.38000000e-02
  4.38000000e-02  3.04752490e+03  4.57369510e+02  1.03948690e+02  2.92101550e+01
  9.28666300e+00  3.16392700e+00  7.86827240e+00  1.88128850e+00  5.44249300e-01
  7.86827240e+00  1.88128850e+00  5.44249300e-01  1.68714400e-01  1.68714400e-01
  8.00000000e-01  4.38000000e-02  4.38000000e-02  1.87311370e+01  2.82539370e+00
  6.40121700e-01  1.61277800e-01  1.87311370e+01  2.82539370e+00  6.40121700e-01
  1.61277800e-01  3.04752490e+03  4.57369510e+02  1.03948690e+02  2.92101550e+01
  9.28666300e+00  3.16392700e+00  7.86827240e+00  1.88128850e+00  5.44249300e-01
  7.86827240e+00  1.88128850e+00  5.44249300e-01  1.68714400e-01  1.68714400e-01
  8.00000000e-01  4.38000000e-02  4.38000000e-02  1.87311370e+01  2.82539370e+00
  6.40121700e-01  1.61277800e-01  1.87311370e+01  2.82539370e+00  6.40121700e-01
  1.61277800e-01  1.87311370e+01  2.82539370e+00  6.40121700e-01  1.61277800e-01
  1.87311370e+01  2.82539370e+00  6.40121700e-01  1.61277800e-01  1.87311370e+01
  2.82539370e+00  6.40121700e-01  1.61277800e-01  1.87311370e+01  2.82539370e+00
  6.40121700e-01  1.61277800e-01  1.87311370e+01  2.82539370e+00  6.40121700e-01
  1.61277800e-01  1.87311370e+01  2.82539370e+00  6.40121700e-01  1.61277800e-01
Contraction coefficients                   R   N=         395
  1.83470016e-03  1.40373012e-02  6.88426061e-02  2.32184421e-01  4.67941342e-01
  3.62312032e-01 -1.19332409e-01 -1.60854212e-01  1.14345648e+00  6.89990956e-02
  3.16423980e-01  7.44308252e-01  1.00000000e+00  1.00000000e+00  1.00000000e+00
  1.00000000e+00  1.00000000e+00  1.83479944e-03  1.39949958e-02  6.85869792e-02
  2.32240930e-01  4.69069858e-01  3.60454891e-01 -1.14961023e-01 -1.69118034e-01
  1.14585223e+00  6.75800232e-02  3.23907111e-01  7.40895255e-01  1.00000000e+00
  1.00000000e+00  1.00000000e+00  1.00000000e+00  1.00000000e+00  1.83470016e-03
  1.40373012e-02  6.88426061e-02  2.32184421e-01  4.67941342e-01  3.62312032e-01
 -1.19332409e-01 -1.60854212e-01  1.14345648e+00  6.89990956e-02  3.16423980e-01
  7.44308252e-01  1.00000000e+00  1.00000000e+00  1.00000000e+00  1.00000000e+00
  1.00000000e+00  1.83479944e-03  1.39949958e-02  6.85869792e-02  2.32240930e-01
  4.69069858e-01  3.60454891e-01 -1.14961023e-01 -1.69118034e-01  1.14585223e+00
  6.75800232e-02  3.23907111e-01  7.40895255e-01  1.00000000e+00  1.00000000e+00
  1.00000000e+00  1.00000000e+00  1.00000000e+00  1.83470016e-03  1.40373012e-02
  6.88426061e-02  2.32184421e-01  4.67941342e-01  3.62312032e-01 -1.19332409e-01
 -1.60854212e-01  1.14345648e+00  6.89990956e-02  3.16423980e-01  7.44308252e-01
  1.00000000e+00  1.00000000e+00  1.00000000e+00  1.00000000e+00  1.00000000e+00
  1.83470016e-03  1.40373012e-02  6.88426061e-02  2.32184421e-01  4.67941342e-01
  3.62312032e-01 -1.19332409e-01 -1.60854212e-01  1.14345648e+00  6.89990956e-02
  3.16423980e-01  7.44308252e-01  1.00000000e+00  1.00000000e+00  1.00000000e+00
  1.00000000e+00  1.00000000e+00  1.83470016e-03  1.40373012e-02  6.88426061e-02
  2.32184421e-01  4.67941342e-01  3.62312032e-01 -1.19332409e-01 -1.60854212e-01
  1.14345648e+00  6.89990956e-02  3.16423980e-01  7.44308252e-01  1.00000000e+00
  1.00000000e+00  1.00000000e+00  1.00000000e+00  1.00000000e+00  1.83470016e-03
  1.40373012e-02  6.88426061e-02  2.32184421e-01  4.67941342e-01  3.62312032e-01
 -1.19332409e-01 -1.60854212e-01  1.14345648e+00  6.89990956e-02  3.16423980e-01
  7.44308252e-01  1.00000000e+00  1.00000000e+00  1.00000000e+00  1.00000000e+00
  1.00000000e+00  1.83470016e-03  1.40373012e-02  6.88426061e-02  2.32184421e-01
  4.67941342e-01  3.62312032e-01 -1.19332409e-01 -1.60854212e-01  1.14345648e+00
  6.89990956e-02  3.16423980e-01  7.44308252e-01  1.00000000e+00  1.00000000e+00
  1.00000000e+00  1.00000000e+00  1.00000000e+00  3.34945995e-02  2.34726947e-01
  8.13757318e-01  1.00000000e+00  1.83470016e-03  1.40373012e-02  6.88426061e-02
  2.32184421e-01  4.67941342e-01  3.62312032e-01 -1.19332409e-01 -1.60854212e-01
  1.14345648e+00  6.89990956e-02  3.16423980e-01  7.44308252e-01  1.00000000e+00
  1.00000000e+00  1.00000000e+00  1.00000000e+00  1.00000000e+00  1.83470016e-03
  1.40373012e-02  6.88426061e-02  2.32184421e-01  4.67941342e-01  3.62312032e-01
 -1.19332409e-01 -1.60854212e-01  1.14345648e+00  6.89990956e-02  3.16423980e-01
  7.44308252e-01  1.00000000e+00  1.00000000e+00  1.00000000e+00  1.00000000e+00
  1.00000000e+00  1.83470016e-03  1.40373012e-02  6.88426061e-02  2.32184421e-01
  4.67941342e-01  3.62312032e-01 -1.19332409e-01 -1.60854212e-01  1.14345648e+00
  6.89990956e-02  3.16423980e-01  7.44308252e-01  1.00000000e+00  1.00000000e+00
  1.00000000e+00  1.00000000e+00  1.00000000e+00  1.83470016e-03  1.40373012e-02
  6.88426061e-02  2.32184421e-01  4.67941342e-01  3.62312032e-01 -1.19332409e-01
 -1.60854212e-01  1.14345648e+00  6.89990956e-02  3.16423980e-01  7.44308252e-01
  1.00000000e+00  1.00000000e+00  1.00000000e+00  1.00000000e+00  1.00000000e+00
  1.83470016e-03  1.40373012e-02  6.88426061e-02  2.32184421e-01  4.67941342e-01
  3.62312032e-01 -1.19332409e-01 -1.60854212e-01  1.14345648e+00  6.89990956e-02
  3.16423980e-01  7.44308252e-01  1.00000000e+00  1.00000000e+00  1.00000000e+00
  1.00000000e+00  1.00000000e+00  1.83470016e-03  1.40373012e-02  6.88426061e-02
  2.32184421e-01  4.67941342e-01  3.62312032e-01 -1.19332409e-01 -1.60854212e-01
  1.14345648e+00  6.89990956e-02  3.16423980e-01  7.44308252e-01  1.00000000e+00
  1.00000000e+00  1.00000000e+00  1.00000000e+00  1.00000000e+00  3.34945995e-02
  2.34726947e-01  8.13757318e-01  1.00000000e+00  3.34945995e-02  2.34726947e-01
  8.13757318e-01  1.00000000e+00  3.34945995e-02  2.34726947e-01  8.13757318e-01
  1.00000000e+00  3.34945995e-02  2.34726947e-01  8.13757318e-01  1.00000000e+00
  1.83300031e-03  1.40340024e-02  6.90970118e-02  2.37452040e-01  4.83034082e-01
  3.39856058e-01 -2.29740199e-03 -3.07140266e-02 -1.12528097e-01  4.50160390e-02
  5.89353510e-01  4.65206403e-01  3.98940055e-03  3.03180042e-02  1.29880018e-01
  3.27951045e-01  4.53527062e-01  2.52154035e-01 -2.51831288e-01  6.15893150e-02
  1.06018542e+00 -1.42990127e-02  3.23572288e-01  7.43507661e-01  1.00000000e+00
  1.00000000e+00  1.00000000e+00  1.00000000e+00  1.00000000e+00  1.83470016e-03
  1.40373012e-02  6.88426061e-02  2.32184421e-01  4.67941342e-01  3.62312032e-01
 -1.19332409e-01 -1.60854212e-01  1.14345648e+00  6.89990956e-02  3.16423980e-01
  7.44308252e-01  1.00000000e+00  1.00000000e+00  1.00000000e+00  1.00000000e+00
  1.00000000e+00  1.83470016e-03  1.40373012e-02  6.88426061e-02  2.32184421e-01
  4.67941342e-01  3.62312032e-01 -1.19332409e-01 -1.60854212e-01  1.14345648e+00
  6.89990956e-02  3.16423980e-01  7.44308252e-01  1.00000000e+00  1.00000000e+00
  1.00000000e+00  1.00000000e+00  1.00000000e+00  3.34945995e-02  2.34726947e-01
  8.13757318e-01  1.00000000e+00  3.34945995e-02  2.34726947e-01  8.13757318e-01
  1.00000000e+00  1.83470016e-03  1.40373012e-02  6.88426061e-02  2.32184421e-01
  4.67941342e-01  3.62312032e-01 -1.19332409e-01 -1.60854212e-01  1.14345648e+00
  6.89990956e-02  3.16423980e-01  7.44308252e-01  1.00000000e+00  1.00000000e+00
  1.00000000e+00  1.00000000e+00  1.00000000e+00  3.34945995e-02  2.34726947e-01
  8.13757318e-01  1.00000000e+00  3.34945995e-02  2.34726947e-01  8.13757318e-01
  1.00000000e+00  3.34945995e-02  2.34726947e-01  8.13757318e-01  1.00000000e+00
  3.34945995e-02  2.34726947e-01  8.13757318e-01  1.00000000e+00  3.34945995e-02
  2.34726947e-01  8.13757318e-01  1.00000000e+00  3.34945995e-02  2.34726947e-01
  8.13757318e-01  1.00000000e+00  3.34945995e-02  2.34726947e-01  8.13757318e-01
  1.00000000e+00  3.34945995e-02  2.34726947e-01  8.13757318e-01  1.00000000e+00
Coordinates of each shell                  R   N=         552
 -2.24568283e+00  2.01313923e+00 -1.82098609e+00 -2.24568283e+00  2.01313923e+00
 -1.82098609e+00 -2.24568283e+00  2.01313923e+00 -1.82098609e+00 -2.24568283e+00
  2.01313923e+00 -1.82098609e+00 -2.24568283e+00  2.01313923e+00 -1.82098609e+00
 -2.24568283e+00  2.01313923e+00 -1.82098609e+00 -2.24568283e+00  2.01313923e+00
 -1.82098609e+00 -2.24568283e+00  2.01313923e+00 -1.82098609e+00 -1.20717668e+00
  3.21609388e+00 -3.94996523e+00 -1.20717668e+00  3.21609388e+00 -3.94996523e+00
 -1.20717668e+00  3.21609388e+00 -3.94996523e+00 -1.20717668e+00  3.21609388e+00
 -3.94996523e+00 -1.20717668e+00  3.21609388e+00 -3.94996523e+00 -1.20717668e+00
  3.21609388e+00 -3.94996523e+00 -1.20717668e+00  3.21609388e+00 -3.94996523e+00
 -1.20717668e+00  3.21609388e+00 -3.94996523e+00 -6.42310502e-01  1.71652684e+00
 -6.22657155e+00 -6.42310502e-01  1.71652684e+00 -6.22657155e+00 -6.42310502e-01
  1.71652684e+00 -6.22657155e+00 -6.42310502e-01  1.71652684e+00 -6.22657155e+00
 -6.42310502e-01  1.71652684e+00 -6.22657155e+00 -6.42310502e-01  1.71652684e+00
 -6.22657155e+00 -6.42310502e-01  1.71652684e+00 -6.22657155e+00 -6.42310502e-01
  1.71652684e+00 -6.22657155e+00  2.01769909e+00 -1.34559524e+00 -3.90834567e+00
  2.01769909e+00 -1.34559524e+00 -3.90834567e+00  2.01769909e+00 -1.34559524e+00
 -3.90834567e+00  2.01769909e+00 -1.34559524e+00 -3.90834567e+00  2.01769909e+00
 -1.34559524e+00 -3.90834567e+00  2.01769909e+00 -1.34559524e+00 -3.90834567e+00
  2.01769909e+00 -1.34559524e+00 -3.90834567e+00  2.01769909e+00 -1.34559524e+00
 -3.90834567e+00 -8.07519404e-02 -1.05425350e+00 -5.66172933e+00 -8.07519404e-02
 -1.05425350e+00 -5.66172933e+00 -8.07519404e-02 -1.05425350e+00 -5.66172933e+00
 -8.07519404e-02 -1.05425350e+00 -5.66172933e+00 -8.07519404e-02 -1.05425350e+00
 -5.66172933e+00 -8.07519404e-02 -1.05425350e+00 -5.66172933e+00 -8.07519404e-02
 -1.05425350e+00 -5.66172933e+00 -8.07519404e-02 -1.05425350e+00 -5.66172933e+00
  1.59863681e+00 -8.59447647e-01 -1.56433921e+00  1.59863681e+00 -8.59447647e-01
 -1.56433921e+00  1.59863681e+00 -8.59447647e-01 -1.56433921e+00  1.59863681e+00
 -8.59447647e-01 -1.56433921e+00  1.59863681e+00 -8.59447647e-01 -1.56433921e+00
  1.59863681e+00 -8.59447647e-01 -1.56433921e+00  1.59863681e+00 -8.59447647e-01
 -1.56433921e+00  1.59863681e+00 -8.59447647e-01 -1.56433921e+00 -9.01421458e-01
  3.39205084e-02 -5.88111164e-01 -9.01421458e-01  3.39205084e-02 -5.88111164e-01
 -9.01421458e-01  3.39205084e-02 -5.88111164e-01 -9.01421458e-01  3.39205084e-02
 -5.88111164e-01 -9.01421458e-01  3.39205084e-02 -5.88111164e-01 -9.01421458e-01
  3.39205084e-02 -5.88111164e-01 -9.01421458e-01  3.39205084e-02 -5.88111164e-01
 -9.01421458e-01  3.39205084e-02 -5.88111164e-01 -4.21614739e+00 -2.68744612e-01
  2.57266036e+00 -4.21614739e+00 -2.68744612e-01  2.57266036e+00 -4.21614739e+00
 -2.68744612e-01  2.57266036e+00 -4.21614739e+00 -2.68744612e-01  2.57266036e+00
 -4.21614739e+00 -2.68744612e-01  2.57266036e+00 -4.21614739e+00 -2.68744612e-01
  2.57266036e+00 -4.21614739e+00 -2.68744612e-01  2.57266036e+00 -4.21614739e+00
 -2.68744612e-01  2.57266036e+00 -1.92249399e+00 -1.09121186e+00  1.58156045e+00
 -1.92249399e+00 -1.09121186e+00  1.58156045e+00 -1.92249399e+00 -1.09121186e+00
  1.58156045e+00 -1.92249399e+00 -1.09121186e+00  1.58156045e+00 -1.92249399e+00
 -1.09121186e+00  1.58156045e+00 -1.92249399e+00 -1.09121186e+00  1.58156045e+00
 -1.92249399e+00 -1.09121186e+00  1.58156045e+00 -1.92249399e+00 -1.09121186e+00
  1.58156045e+00 -8.93401401e-01 -2.59953156e+00  2.51472372e+00 -8.93401401e-01
 -2.59953156e+00  2.51472372e+00  3.72446199e+00 -1.21946011e+00  2.58899951e-01
  3.72446199e+00 -1.21946011e+00  2.58899951e-01  3.72446199e+00 -1.21946011e+00
  2.58899951e-01  3.72446199e+00 -1.21946011e+00  2.58899951e-01  3.72446199e+00
 -1.21946011e+00  2.58899951e-01  3.72446199e+00 -1.21946011e+00  2.58899951e-01
  3.72446199e+00 -1.21946011e+00  2.58899951e-01  3.72446199e+00 -1.21946011e+00
  2.58899951e-01  3.91329542e+00  2.22207854e-01  2.47994704e+00  3.91329542e+00
  2.22207854e-01  2.47994704e+00  3.91329542e+00  2.22207854e-01  2.47994704e+00
  3.91329542e+00  2.22207854e-01  2.47994704e+00  3.91329542e+00  2.22207854e-01
  2.47994704e+00  3.91329542e+00  2.22207854e-01  2.47994704e+00  3.91329542e+00
  2.22207854e-01  2.47994704e+00  3.91329542e+00  2.22207854e-01  2.47994704e+00
  5.96292315e+00 -8.80860569e-02  4.11509224e+00  5.96292315e+00 -8.80860569e-02
  4.11509224e+00  5.96292315e+00 -8.80860569e-02  4.11509224e+00  5.96292315e+00
 -8.80860569e-02  4.11509224e+00  5.96292315e+00 -8.80860569e-02  4.11509224e+00
  5.96292315e+00 -8.80860569e-02  4.11509224e+00  5.96292315e+00 -8.80860569e-02
  4.11509224e+00  5.96292315e+00 -8.80860569e-02  4.11509224e+00  7.84120255e+00
 -1.85926787e+00  3.56560429e+00  7.84120255e+00 -1.85926787e+00  3.56560429e+00
  7.84120255e+00 -1.85926787e+00  3.56560429e+00  7.84120255e+00 -1.85926787e+00
  3.56560429e+00  7.84120255e+00 -1.85926787e+00  3.56560429e+00  7.84120255e+00
 -1.85926787e+00  3.56560429e+00  7.84120255e+00 -1.85926787e+00  3.56560429e+00
  7.84120255e+00 -1.85926787e+00  3.56560429e+00  7.66775208e+00 -3.30855325e+00