Generated by Psi4
     FORCE                           RHF                       TESTBAS
Number of atoms                            I               32
Charge                                     I                0
Multiplicity                               I                1
Number of electrons                        I              114
Number of alpha electrons                  I               57
Number of beta electrons                   I               57
Number of basis functions                  I              306
Number of independent functions            I              306
Atomic numbers                             I   N=          32
           6           6           6           1           1           7
           6           6           6           6           6           1
           1           1           6           1           1           1
           1           1           1           6           1           6
           1           1           6           1           1          17
           1           1
Nuclear charges                            R   N=          32
  6.00000000e+00  6.00000000e+00  6.00000000e+00  1.00000000e+00  1.00000000e+00
  7.00000000e+00  6.00000000e+00  6.00000000e+00  6.00000000e+00  6.00000000e+00
  6.00000000e+00  1.00000000e+00  1.00000000e+00  1.00000000e+00  6.00000000e+00
  1.00000000e+00  1.00000000e+00  1.00000000e+00  1.00000000e+00  1.00000000e+00
  1.00000000e+00  6.00000000e+00  1.00000000e+00  6.00000000e+00  1.00000000e+00
  1.00000000e+00  6.00000000e+00  1.00000000e+00  1.00000000e+00  1.70000000e+01
  1.00000000e+00  1.00000000e+00
Current cartesian coordinates              R   N=          96
  3.97297791e+00 -2.71421174e-01 -3.88417097e+00  2.48496708e+00 -1.42554811e+00
 -1.72827377e+00  9.42673280e-01  4.90121866e-01 -1.44955060e-01  3.77935574e+00
 -2.44391708e+00 -4.61134145e-01  1.14514456e+00 -2.82574943e+00 -2.46183055e+00
 -7.20290535e-01 -9.55754339e-01  1.55243315e+00  6.60365533e+00  2.01974416e-02
 -3.75292096e+00  7.95860118e+00  1.10382324e+00 -5.74610621e+00  6.69741179e+00
  1.91701417e+00 -7.91796051e+00  4.07518896e+00  1.63042142e+00 -8.08136841e+00
  2.73387436e+00  5.43475046e-01 -6.08511369e+00  7.60592602e+00 -6.15204512e-01
 -2.07334498e+00  6.96125611e-01  3.08899345e-01 -6.24163130e+00  9.99844520e+00
  1.30528864e+00 -5.60181364e+00  2.64999465e+00  2.42213574e+00  1.19970050e+00
 -3.14333439e-01  1.51647374e+00 -1.44206392e+00  3.93094848e+00  1.46574224e+00
  2.52598353e+00  1.53791796e+00  3.80194378e+00  2.27054812e+00  3.80996794e+00
  3.47012176e+00 -1.57650739e-01  3.07574607e+00  2.24130650e+00 -9.76967846e+00
  7.74603720e+00  2.75558670e+00 -9.47261007e+00 -2.64174976e+00  4.99172601e-01
  2.90232617e+00  3.51873836e-01 -1.94568554e+00  2.81379895e+00 -4.43366215e+00
 -1.27998008e+00  4.33262023e+00 -3.71391174e+00  1.57544850e+00  1.48709825e+00
 -1.84625563e+00  1.89597196e+00  4.23842926e+00 -6.48367191e+00  1.84520346e-01
  5.72413880e+00 -3.35615378e+00 -2.40808138e+00  5.70117117e+00 -5.28968392e+00
 -2.60555812e+00  2.99312306e+00 -8.59455373e+00 -1.91395132e+00  7.45177444e+00
 -7.68025168e+00  1.25299297e+00  4.42413321e+00 -5.69555175e+00  1.47939963e+00
  7.12573597e+00
Integer atomic weights                     I   N=          32
          12          12          12           1           1          14
          12          12          12          12          12           1
           1           1          12           1           1           1
           1           1           1          12           1          12
           1           1          12           1           1          34
           1           1
Real atomic weights                        R   N=          32
  1.20000000e+01  1.20000000e+01  1.20000000e+01  1.00782503e+00  1.00782503e+00
  1.40030740e+01  1.20000000e+01  1.20000000e+01  1.20000000e+01  1.20000000e+01
  1.20000000e+01  1.00782503e+00  1.00782503e+00  1.00782503e+00  1.20000000e+01
  1.00782503e+00  1.00782503e+00  1.00782503e+00  1.00782503e+00  1.00782503e+00
  1.00782503e+00  1.20000000e+01  1.00782503e+00  1.20000000e+01  1.00782503e+00
  1.00782503e+00  1.20000000e+01  1.00782503e+00  1.00782503e+00  3.49688527e+01
  1.00782503e+00  1.00782503e+00
Number of primitive shells                 I              322
Number of contracted shells                I              150
Pure/Cartesian d shells                    I                1
Pure/Cartesian f shells                    I                1
Highest angular momentum                   I                2
Largest degree of contraction              I                6
Shell types                                I   N=         150
           0           0           1           0           1           2
           0           1           0           0           1           0
           1           2           0           1           0           0
           1           0           1           2           0           1
           0           0           0           0           0           0
           1           0           1           2           0           1
           0           0           1           0           1           2
           0           1           0           0           1           0
           1           2           0           1           0           0
           1           0           1           2           0           1
           0           0           1           0           1           2
           0           1           0           0           1           0
           1           2           0           1           0           0
           0           0           0           0           0           0
           1           0           1           2           0           1
           0           0           0           0           0           0
           0           0           0           0           0           0
           0           0           1           0           1           2
           0           1           0           0           0           0
           1           0           1           2           0           1
           0           0           0           0           0           0
           1           0           1           2           0           1
           0           0           0           0           0           0
           1           0           1           0           1           2
           0           1           0           0           0           0
Number of primitives per shell             I   N=         150
           6           3           3           1           1           1
           1           1           6           3           3           1
           1           1           1           1           6           3
           3           1           1           1           1           1
           3           1           3           1           6           3
           3           1           1           1           1           1
           6           3           3           1           1           1
           1           1           6           3           3           1
           1           1           1           1           6           3
           3           1           1           1           1           1
           6           3           3           1           1           1
           1           1           6           3           3           1
           1           1           1           1           3           1
           3           1           3           1           6           3
           3           1           1           1           1           1
           3           1           3           1           3           1
           3           1           3           1           3           1
           6           3           3           1           1           1
           1           1           3           1           6           3
           3           1           1           1           1           1
           3           1           3           1           6           3
           3           1           1           1           1           1
           3           1           3           1           6           6
           6           3           3           1           1           1
           1           1           3           1           3           1
Shell to atom map                          I   N=         150
           1           1           1           1           1           1
           1           1           2           2           2           2
           2           2           2           2           3           3
           3           3           3           3           3           3
           4           4           5           5           6           6
           6           6           6           6           6           6
           7           7           7           7           7           7
           7           7           8           8           8           8
           8           8           8           8           9           9
           9           9           9           9           9           9
          10          10          10          10          10          10
          10          10          11          11          11          11
          11          11          11          11          12          12
          13          13          14          14          15          15
          15          15          15          15          15          15
          16          16          17          17          18          18
          19          19          20          20          21          21
          22          22          22          22          22          22
          22          22          23          23          24          24
          24          24          24          24          24          24
          25          25          26          26          27          27
          27          27          27          27          27          27
          28          28          29          29          30          30
          30          30          30          30          30          30
          30          30          31          31          32          32
Primitive exponents                        R   N=         322
  3.04752490e+03  4.57369510e+02  1.03948690e+02  2.92101550e+01  9.28666300e+00
  3.16392700e+00  7.86827240e+00  1.88128850e+00  5.44249300e-01  7.86827240e+00
  1.88128850e+00  5.44249300e-01  1.68714400e-01  1.68714400e-01  8.00000000e-01
  4.38000000e-02  4.38000000e-02  3.04752490e+03  4.57369510e+02  1.03948690e+02
  2.92101550e+01  9.28666300e+00  3.16392700e+00  7.86827240e+00  1.88128850e+00
  5.44249300e-01  7.86827240e+00  1.88128850e+00  5.44249300e-01  1.68714400e-01
  1.68714400e-01  8.00000000e-01  4.38000000e-02  4.38000000e-02  3.04752490e+03
  4.57369510e+02  1.03948690e+02  2.92101550e+01  9.28666300e+00  3.16392700e+00
  7.86827240e+00  1.88128850e+00  5.44249300e-01  7.86827240e+00  1.88128850e+00
  5.44249300e-01  1.68714400e-01  1.68714400e-01  8.00000000e-01  4.38000000e-02
  4.38000000e-02  1.87311370e+01  2.82539370e+00  6.40121700e-01  1.61277800e-01
  1.87311370e+01  2.82539370e+00  6.40121700e-01  1.61277800e-01  4.17351100e+03
  6.27457900e+02  1.42902100e+02  4.02343300e+01  1.28202100e+01  4.39043700e+00
  1.16263580e+01  2.71628000e+00  7.72218000e-01  1.16263580e+01  2.71628000e+00
  7.72218000e-01  2.12031300e-01  2.12031300e-01  8.00000000e-01  6.39000000e-02
  6.39000000e-02  3.04752490e+03  4.57369510e+02  1.03948690e+02  2.92101550e+01
  9.28666300e+00  3.16392700e+00  7.86827240e+00  1.88128850e+00  5.44249300e-01
  7.86827240e+00  1.88128850e+00  5.44249300e-01  1.68714400e-01  1.68714400e-01
  8.00000000e-01  4.38000000e-02  4.38000000e-02  3.04752490e+03  4.57369510e+02
  1.03948690e+02  2.92101550e+01  9.28666300e+00  3.16392700e+00  7.86827240e+00
  1.88128850e+00  5.44249300e-01  7.86827240e+00  1.88128850e+00  5.44249300e-01
  1.68714400e-01  1.68714400e-01  8.00000000e-01  4.38000000e-02  4.38000000e-02
  3.04752490e+03  4.57369510e+02  1.03948690e+02  2.92101550e+01  9.28666300e+00
  3.16392700e+00  7.86827240e+00  1.88128850e+00  5.44249300e-01  7.86827240e+00
  1.88128850e+00  5.44249300e-01  1.68714400e-01  1.68714400e-01  8.00000000e-01
  4.38000000e-02  4.38000000e-02  3.04752490e+03  4.57369510e+02  1.03948690e+02
  2.92101550e+01  9.28666300e+00  3.16392700e+00  7.86827240e+00  1.88128850e+00
  5.44249300e-01  7.86827240e+00  1.88128850e+00  5.44249300e-01  1.68714400e-01
  1.68714400e-01  8.00000000e-01  4.38000000e-02  4.38000000e-02  3.04752490e+03
  4.57369510e+02  1.03948690e+02  2.92101550e+01  9.28666300e+00  3.16392700e+00
  7.86827240e+00  1.88128850e+00  5.44249300e-01  7.86827240e+00  1.88128850e+00
  5.44249300e-01  1.68714400e-01  1.68714400e-01  8.00000000e-01  4.38000000e-02
  4.38000000e-02  1.87311370e+01  2.82539370e+00  6.40121700e-01  1.61277800e-01
  1.87311370e+01  2.82539370e+00  6.40121700e-01  1.61277800e-01  1.87311370e+01
  2.82539370e+00  6.40121700e-01  1.61277800e-01  3.04752490e+03  4.57369510e+02
  1.03948690e+02  2.92101550e+01  9.28666300e+00  3.16392700e+00  7.86827240e+00
  1.88128850e+00  5.44249300e-01  7.86827240e+00  1.88128850e+00  5.44249300e-01
  1.68714400e-01  1.68714400e-01  8.00000000e-01  4.38000000e-02  4.38000000e-02
  1.87311370e+01  2.82539370e+00  6.40121700e-01  1.61277800e-01  1.87311370e+01
  2.82539370e+00  6.40121700e-01  1.61277800e-01  1.87311370e+01  2.82539370e+00
  6.40121700e-01  1.61277800e-01  1.87311370e+01  2.82539370e+00  6.40121700e-01
  1.61277800e-01  1.87311370e+01  2.82539370e+00  6.40121700e-01  1.61277800e-01
  1.87311370e+01  2.82539370e+00  6.40121700e-01  1.61277800e-01  3.04752490e+03
  4.57369510e+02  1.03948690e+02  2.92101550e+01  9.28666300e+00  3.16392700e+00
  7.86827240e+00  1.88128850e+00  5.44249300e-01  7.86827240e+00  1.88128850e+00
  5.44249300e-01  1.68714400e-01  1.68714400e-01  8.00000000e-01  4.38000000e-02
  4.38000000e-02  1.87311370e+01  2.82539370e+00  6.40121700e-01  1.61277800e-01
  3.04752490e+03  4.57369510e+02  1.03948690e+02  2.92101550e+01  9.28666300e+00
  3.16392700e+00  7.86827240e+00  1.88128850e+00  5.44249300e-01  7.86827240e+00
  1.88128850e+00  5.44249300e-01  1.68714400e-01  1.68714400e-01  8.00000000e-01
  4.38000000e-02  4.38000000e-02  1.87311370e+01  2.82539370e+00  6.40121700e-01
  1.61277800e-01  1.87311370e+01  2.82539370e+00  6.40121700e-01  1.61277800e-01
  3.04752490e+03  4.57369510e+02  1.03948690e+02  2.92101550e+01  9.28666300e+00
  3.16392700e+00  7.86827240e+00  1.88128850e+00  5.44249300e-01  7.86827240e+00
  1.88128850e+00  5.44249300e-01  1.68714400e-01  1.68714400e-01  8.00000000e-01
  4.38000000e-02  4.38000000e-02  1.87311370e+01  2.82539370e+00  6.40121700e-01
  1.61277800e-01  1.87311370e+01  2.82539370e+00  6.40121700e-01  1.61277800e-01
  2.51801000e+04  3.78035000e+03  8.60474000e+02  2.42145000e+02  7.73349000e+01
  2.62470000e+01  4.91765000e+02  1.16984000e+02  3.74153000e+01  1.37834000e+01
  5.45215000e+00  2.22588000e+00  4.91765000e+02  1.16984000e+02  3.74153000e+01
  1.37834000e+01  5.45215000e+00  2.22588000e+00  3.18649000e+00  1.14427000e+00
  4.20377000e-01  3.18649000e+00  1.14427000e+00  4.20377000e-01  1.42657000e-01
  1.42657000e-01  7.50000000e-01  4.83000000e-02  4.83000000e-02  1.87311370e+01
  2.82539370e+00  6.40121700e-01  1.61277800e-01  1.87311370e+01  2.82539370e+00
  6.40121700e-01  1.61277800e-01
Contraction coefficients                   R   N=         322
  1.83470016e-03  1.40373012e-02  6.88426061e-02  2.32184421e-01  4.67941342e-01
  3.62312032e-01 -1.19332409e-01 -1.60854212e-01  1.14345648e+00  6.89990956e-02
  3.16423980e-01  7.44308252e-01  1.00000000e+00  1.00000000e+00  1.00000000e+00
  1.00000000e+00  1.00000000e+00  1.83470016e-03  1.40373012e-02  6.88426061e-02
  2.32184421e-01  4.67941342e-01  3.62312032e-01 -1.19332409e-01 -1.60854212e-01
  1.14345648e+00  6.89990956e-02  3.16423980e-01  7.44308252e-01  1.00000000e+00
  1.00000000e+00  1.00000000e+00  1.00000000e+00  1.00000000e+00  1.83470016e-03
  1.40373012e-02  6.88426061e-02  2.32184421e-01  4.67941342e-01  3.62312032e-01
 -1.19332409e-01 -1.60854212e-01  1.14345648e+00  6.89990956e-02  3.16423980e-01
  7.44308252e-01  1.00000000e+00  1.00000000e+00  1.00000000e+00  1.00000000e+00
  1.00000000e+00  3.34945995e-02  2.34726947e-01  8.13757318e-01  1.00000000e+00
  3.34945995e-02  2.34726947e-01  8.13757318e-01  1.00000000e+00  1.83479944e-03
  1.39949958e-02  6.85869792e-02  2.32240930e-01  4.69069858e-01  3.60454891e-01
 -1.14961023e-01 -1.69118034e-01  1.14585223e+00  6.75800232e-02  3.23907111e-01
  7.40895255e-01  1.00000000e+00  1.00000000e+00  1.00000000e+00  1.00000000e+00
  1.00000000e+00  1.83470016e-03  1.40373012e-02  6.88426061e-02  2.32184421e-01
  4.67941342e-01  3.62312032e-01 -1.19332409e-01 -1.60854212e-01  1.14345648e+00
  6.89990956e-02  3.16423980e-01  7.44308252e-01  1.00000000e+00  1.00000000e+00
  1.00000000e+00  1.00000000e+00  1.00000000e+00  1.83470016e-03  1.40373012e-02
  6.88426061e-02  2.32184421e-01  4.67941342e-01  3.62312032e-01 -1.19332409e-01
 -1.60854212e-01  1.14345648e+00  6.89990956e-02  3.16423980e-01  7.44308252e-01
  1.00000000e+00  1.00000000e+00  1.00000000e+00  1.00000000e+00  1.00000000e+00
  1.83470016e-03  1.40373012e-02  6.88426061e-02  2.32184421e-01  4.67941342e-01
  3.62312032e-01 -1.19332409e-01 -1.60854212e-01  1.14345648e+00  6.89990956e-02
  3.16423980e-01  7.44308252e-01  1.00000000e+00  1.00000000e+00  1.00000000e+00
  1.00000000e+00  1.00000000e+00  1.83470016e-03  1.40373012e-02  6.88426061e-02
  2.32184421e-01  4.67941342e-01  3.62312032e-01 -1.19332409e-01 -1.60854212e-01
  1.14345648e+00  6.89990956e-02  3.16423980e-01  7.44308252e-01  1.00000000e+00
  1.00000000e+00  1.00000000e+00  1.00000000e+00  1.00000000e+00  1.83470016e-03
  1.40373012e-02  6.88426061e-02  2.32184421e-01  4.67941342e-01  3.62312032e-01
 -1.19332409e-01 -1.60854212e-01  1.14345648e+00  6.89990956e-02  3.16423980e-01
  7.44308252e-01  1.00000000e+00  1.00000000e+00  1.00000000e+00  1.00000000e+00
  1.00000000e+00  3.34945995e-02  2.34726947e-01  8.13757318e-01  1.00000000e+00
  3.34945995e-02  2.34726947e-01  8.13757318e-01  1.00000000e+00  3.34945995e-02
  2.34726947e-01  8.13757318e-01  1.00000000e+00  1.83470016e-03  1.40373012e-02
  6.88426061e-02  2.32184421e-01  4.67941342e-01  3.62312032e-01 -1.19332409e-01
 -1.60854212e-01  1.14345648e+00  6.89990956e-02  3.16423980e-01  7.44308252e-01
  1.00000000e+00  1.00000000e+00  1.00000000e+00  1.00000000e+00  1.00000000e+00
  3.34945995e-02  2.34726947e-01  8.13757318e-01  1.00000000e+00  3.34945995e-02
  2.34726947e-01  8.13757318e-01  1.00000000e+00  3.34945995e-02  2.34726947e-01
  8.13757318e-01  1.00000000e+00  3.34945995e-02  2.34726947e-01  8.13757318e-01
  1.00000000e+00  3.34945995e-02  2.34726947e-01  8.13757318e-01  1.00000000e+00
  3.34945995e-02  2.34726947e-01  8.13757318e-01  1.00000000e+00  1.83470016e-03
  1.40373012e-02  6.88426061e-02  2.32184421e-01  4.67941342e-01  3.62312032e-01
 -1.19332409e-01 -1.60854212e-01  1.14345648e+00  6.89990956e-02  3.16423980e-01
  7.44308252e-01  1.00000000e+00  1.00000000e+00  1.00000000e+00  1.00000000e+00
  1.00000000e+00  3.34945995e-02  2.34726947e-01  8.13757318e-01  1.00000000e+00
  1.83470016e-03  1.40373012e-02  6.88426061e-02  2.32184421e-01  4.67941342e-01
  3.62312032e-01 -1.19332409e-01 -1.60854212e-01  1.14345648e+00  6.89990956e-02
  3.16423980e-01  7.44308252e-01  1.00000000e+00  1.00000000e+00  1.00000000e+00
  1.00000000e+00  1.00000000e+00  3.34945995e-02  2.34726947e-01  8.13757318e-01
  1.00000000e+00  3.34945995e-02  2.34726947e-01  8.13757318e-01  1.00000000e+00
  1.83470016e-03  1.40373012e-02  6.88426061e-02  2.32184421e-01  4.67941342e-01
  3.62312032e-01 -1.19332409e-01 -1.60854212e-01  1.14345648e+00  6.89990956e-02
  3.16423980e-01  7.44308252e-01  1.00000000e+00  1.00000000e+00  1.00000000e+00
  1.00000000e+00  1.00000000e+00  3.34945995e-02  2.34726947e-01  8.13757318e-01
  1.00000000e+00  3.34945995e-02  2.34726947e-01  8.13757318e-01  1.00000000e+00
  1.83300031e-03  1.40340024e-02  6.90970118e-02  2.37452040e-01  4.83034082e-01
  3.39856058e-01 -2.29740199e-03 -3.07140266e-02 -1.12528097e-01  4.50160390e-02
  5.89353510e-01  4.65206403e-01  3.98940055e-03  3.03180042e-02  1.29880018e-01
  3.27951045e-01  4.53527062e-01  2.52154035e-01 -2.51831288e-01  6.15893150e-02
  1.06018542e+00 -1.42990127e-02  3.23572288e-01  7.43507661e-01  1.00000000e+00
  1.00000000e+00  1.00000000e+00  1.00000000e+00  1.00000000e+00  3.34945995e-02
  2.34726947e-01  8.13757318e-01  1.00000000e+00  3.34945995e-02  2.34726947e-01
  8.13757318e-01  1.00000000e+00
Coordinates of each shell                  R   N=         450
  3.97297791e+00 -2.71421174e-01 -3.88417097e+00  3.97297791e+00 -2.71421174e-01
 -3.88417097e+00  3.97297791e+00 -2.71421174e-01 -3.88417097e+00  3.97297791e+00
 -2.71421174e-01 -3.88417097e+00  3.97297791e+00 -2.71421174e-01 -3.88417097e+00
  3.97297791e+00 -2.71421174e-01 -3.88417097e+00  3.97297791e+00 -2.71421174e-01
 -3.88417097e+00  3.97297791e+00 -2.71421174e-01 -3.88417097e+00  2.48496708e+00
 -1.42554811e+00 -1.72827377e+00  2.48496708e+00 -1.42554811e+00 -1.72827377e+00
  2.48496708e+00 -1.42554811e+00 -1.72827377e+00  2.48496708e+00 -1.42554811e+00
 -1.72827377e+00  2.48496708e+00 -1.42554811e+00 -1.72827377e+00  2.48496708e+00
 -1.42554811e+00 -1.72827377e+00  2.48496708e+00 -1.42554811e+00 -1.72827377e+00
  2.48496708e+00 -1.42554811e+00 -1.72827377e+00  9.42673280e-01  4.90121866e-01
 -1.44955060e-01  9.42673280e-01  4.90121866e-01 -1.44955060e-01  9.42673280e-01
  4.90121866e-01 -1.44955060e-01  9.42673280e-01  4.90121866e-01 -1.44955060e-01
  9.42673280e-01  4.90121866e-01 -1.44955060e-01  9.42673280e-01  4.90121866e-01
 -1.44955060e-01  9.42673280e-01  4.90121866e-01 -1.44955060e-01  9.42673280e-01
  4.90121866e-01 -1.44955060e-01  3.77935574e+00 -2.44391708e+00 -4.61134145e-01
  3.77935574e+00 -2.44391708e+00 -4.61134145e-01  1.14514456e+00 -2.82574943e+00
 -2.46183055e+00  1.14514456e+00 -2.82574943e+00 -2.46183055e+00 -7.20290535e-01
 -9.55754339e-01  1.55243315e+00 -7.20290535e-01 -9.55754339e-01  1.55243315e+00
 -7.20290535e-01 -9.55754339e-01  1.55243315e+00 -7.20290535e-01 -9.55754339e-01
  1.55243315e+00 -7.20290535e-01 -9.55754339e-01  1.55243315e+00 -7.20290535e-01
 -9.55754339e-01  1.55243315e+00 -7.20290535e-01 -9.55754339e-01  1.55243315e+00
 -7.20290535e-01 -9.55754339e-01  1.55243315e+00  6.60365533e+00  2.01974416e-02
 -3.75292096e+00  6.60365533e+00  2.01974416e-02 -3.75292096e+00  6.60365533e+00
  2.01974416e-02 -3.75292096e+00  6.60365533e+00  2.01974416e-02 -3.75292096e+00
  6.60365533e+00  2.01974416e-02 -3.75292096e+00  6.60365533e+00  2.01974416e-02
 -3.75292096e+00  6.60365533e+00  2.01974416e-02 -3.75292096e+00  6.60365533e+00
  2.01974416e-02 -3.75292096e+00  7.95860118e+00  1.10382324e+00 -5.74610621e+00
  7.95860118e+00  1.10382324e+00 -5.74610621e+00  7.95860118e+00  1.10382324e+00
 -5.74610621e+00  7.95860118e+00  1.10382324e+00 -5.74610621e+00  7.95860118e+00
  1.10382324e+00 -5.74610621e+00  7.95860118e+00  1.10382324e+00 -5.74610621e+00
  7.95860118e+00  1.10382324e+00 -5.74610621e+00  7.95860118e+00  1.10382324e+00
 -5.74610621e+00  6.69741179e+00  1.91701417e+00 -7.91796051e+00  6.69741179e+00
  1.91701417e+00 -7.91796051e+00  6.69741179e+00  1.91701417e+00 -7.91796051e+00
  6.69741179e+00  1.91701417e+00 -7.91796051e+00  6.69741179e+00  1.91701417e+00
 -7.91796051e+00  6.69741179e+00  1.91701417e+00 -7.91796051e+00  6.69741179e+00
  1.91701417e+00 -7.91796051e+00  6.69741179e+00  1.91701417e+00 -7.91796051e+00
  4.07518896e+00  1.63042142e+00 -8.08136841e+00  4.07518896e+00  1.63042142e+00
 -8.08136841e+00  4.07518896e+00  1.63042142e+00 -8.08136841e+00  4.07518896e+00
  1.63042142e+00 -8.08136841e+00  4.07518896e+00  1.63042142e+00 -8.08136841e+00
  4.07518896e+00  1.63042142e+00 -8.08136841e+00  4.07518896e+00  1.63042142e+00
 -8.08136841e+00  4.07518896e+00  1.63042142e+00 -8.08136841e+00  2.73387436e+00
  5.43475046e-01 -6.08511369e+00  2.73387436e+00  5.43475046e-01 -6.08511369e+00
  2.73387436e+00  5.43475046e-01 -6.08511369e+00  2.73387436e+00  5.43475046e-01
 -6.08511369e+00  2.73387436e+00  5.43475046e-01 -6.08511369e+00  2.73387436e+00
  5.43475046e-01 -6.08511369e+00  2.73387436e+00  5.43475046e-01 -6.08511369e+00
  2.73387436e+00  5.43475046e-01 -6.08511369e+00  7.60592602e+00 -6.15204512e-01
 -2.07334498e+00  7.60592602e+00 -6.15204512e-01 -2.07334498e+00  6.96125611e-01
  3.08899345e-01 -6.24163130e+00  6.96125611e-01  3.08899345e-01 -6.24163130e+00
  9.99844520e+00  1.30528864e+00 -5.60181364e+00  9.99844520e+00  1.30528864e+00
 -5.60181364e+00  2.64999465e+00  2.42213574e+00  1.19970050e+00  2.64999465e+00
  2.42213574e+00  1.19970050e+00  2.64999465e+00  2.42213574e+00  1.19970050e+00
  2.64999465e+00  2.42213574e+00  1.19970050e+00  2.64999465e+00  2.42213574e+00
  1.19970050e+00  2.64999465e+00  2.42213574e+00  1.19970050e+00  2.64999465e+00
  2.42213574e+00  1.19970050e+00  2.64999465e+00  2.42213574e+00  1.19970050e+00
 -3.14333439e-01  1.51647374e+00 -1.44206392e+00 -3.14333439e-01  1.51647374e+00
 -1.44206392e+00  3.93094848e+00  1.46574224e+00  2.52598353e+00  3.93094848e+00
  1.46574224e+00  2.52598353e+00  1.53791796e+00  3.80194378e+00  2.27054812e+00
  1.53791796e+00  3.80194378e+00  2.27054812e+00  3.80996794e+00  3.47012176e+00
 -1.57650739e-01  3.80996794e+00  3.47012176e+00 -1.57650739e-01  3.07574607e+00
  2.24130650e+00 -9.76967846e+00  3.07574607e+00  2.24130650e+00 -9.76967846e+00
  7.74603720e+00  2.75558670e+00 -9.47261007e+00  7.74603720e+00  2.75558670e+00
 -9.47261007e+00 -2.64174976e+00  4.99172601e-01  2.90232617e+00 -2.64174976e+00
  4.99172601e-01  2.90232617e+00 -2.64174976e+00  4.99172601e-01  2.90232617e+00
 -2.64174976e+00  4.99172601e-01  2.90232617e+00 -2.64174976e+00  4.99172601e-01
  2.90232617e+00 -2.64174976e+00  4.99172601e-01  2.90232617e+00 -2.64174976e+00
  4.99172601e-01  2.90232617e+00 -2.64174976e+00  4.99172601e-01  2.90232617e+00
  3.51873836e-01 -1.94568554e+00  2.81379895e+00  3.51873836e-01 -1.94568554e+00
  2.81379895e+00 -4.43366215e+00 -1.27998008e+00  4.33262023e+00 -4.43366215e+00
 -1.27998008e+00  4.33262023e+00 -4.43366215e+00 -1.27998008e+00  4.33262023e+00
 -4.43366215e+00 -1.27998008e+00  4.33262023e+00 -4.43366215e+00 -1.27998008e+00
  4.33262023e+00 -4.43366215e+00 -1.27998008e+00  4.33262023e+00 -4.43366215e+00
 -1.27998008e+00  4.33262023e+00 -4.43366215e+00 -1.27998008e+00  4.33262023e+00
 -3.71391174e+00  1.57544850e+00  1.48709825e+00 -3.71391174e+00  1.57544850e+00
  1.48709825e+00 -1.84625563e+00  1.89597196e+00  4.23842926e+00 -1.84625563e+00
  1.89597196e+00  4.23842926e+00 -6.48367191e+00  1.84520346e-01  5.72413880e+00
 -6.48367191e+00  1.84520346e-01  5.72413880e+00 -6.48367191e+00  1.84520346e-01
  5.72413880e+00 -6.48367191e+00  1.84520346e-01  5.72413880e+00 -6.48367191e+00
  1.84520346e-01  5.72413880e+00 -6.48367191e+00  1.84520346e-01  5.72413880e+00
 -6.48367191e+00  1.84520346e-01  5.72413880e+00 -6.48367191e+00  1.84520346e-01
  5.72413880e+00 -3.35615378e+00 -2.40808138e+00  5.70117117e+00 -3.35615378e+00
 -2.40808138e+00  5.70117117e+00 -5.28968392e+00 -2.60555812e+00  2.99312306e+00
 -5.28968392e+00 -2.60555812e+00  2.99312306e+00 -8.59455373e+00 -1.91395132e+00
  7.45177444e+00 -8.59455373e+00 -1.91395132e+00  7.45177444e+00 -8.59455373e+00
 -1.91395132e+00  7.45177444e+00 -8.59455373e+00 -1.91395132e+00  7.45177444e+00
 -8.59455373e+00 -1.91395132e+00  7.45177444e+00 -8.59455373e+00 -1.91395132e+00
  7.45177444e+00 -8.59455373e+00 -1.91395132e+00  7.45177444e+00 -8.59455373e+00
 -1.91395132e+00  7.45177444e+00 -8.59455373e+00 -1.91395132e+00  7.45177444e+00
 -8.59455373e+00 -1.91395132e+00  7.45177444e+00 -7.68025168e+00  1.25299297e+00
  4.42413321e+00 -7.68025168e+00  1.25299297e+00  4.42413321e+00 -5.69555175e+00
  1.47939963e+00  7.12573597e+00 -5.69555175e+00  1.47939963e+00  7.12573597e+00
Total Energy                               R     -9.830883063320250e+02
Alpha Orbital Energies                     R   N=         306
 -1.01537015e+02 -1.43324426e+01 -1.02529998e+01 -1.02265923e+01 -1.02249413e+01
 -1.02049398e+01 -1.02023206e+01 -1.01991077e+01 -1.01988794e+01 -1.01974093e+01
 -1.01965846e+01 -1.01965095e+01 -1.01931747e+01 -1.01820214e+01 -9.45263820e+00
 -7.21655970e+00 -7.20688363e+00 -7.20679896e+00 -9.18724263e-01 -8.62609805e-01
 -8.57335205e-01 -7.99365270e-01 -7.67706839e-01 -7.50659907e-01 -7.35470614e-01
 -6.91125187e-01 -6.60481523e-01 -6.14218978e-01 -6.10084254e-01 -6.03938355e-01
 -5.79265024e-01 -5.19063742e-01 -5.02026811e-01 -4.83365537e-01 -4.75268332e-01
 -4.66665960e-01 -4.59369988e-01 -4.41703843e-01 -4.35190037e-01 -4.25601411e-01
 -4.21789108e-01 -4.14289921e-01 -4.02280029e-01 -3.96180288e-01 -3.82173960e-01
 -3.73690952e-01 -3.66370698e-01 -3.56734709e-01 -3.52736379e-01 -3.48025872e-01
 -3.42003865e-01 -3.36300520e-01 -2.98468056e-01 -2.98132733e-01 -2.58073299e-01
 -2.50821405e-01 -2.32925292e-01 -1.81160595e-02 -1.52127603e-02 -3.71306445e-03
  1.37185009e-03  5.98252803e-03  1.41313036e-02  1.87936737e-02  2.12045181e-02
  2.69719225e-02  3.44013907e-02  4.14828957e-02  4.30706981e-02  4.48212645e-02
  5.31293153e-02  5.98000729e-02  6.23474780e-02  6.34031787e-02  7.16842551e-02
  7.85161477e-02  8.30225837e-02  8.90545373e-02  9.22592190e-02  9.25916212e-02
  9.30238006e-02  1.04359362e-01  1.07877492e-01  1.15909149e-01  1.16348595e-01
  1.23187928e-01  1.25763334e-01  1.29306293e-01  1.29531941e-01  1.33773054e-01
  1.43166241e-01  1.45495759e-01  1.52911501e-01  1.56246358e-01  1.58806182e-01
  1.69535096e-01  1.72043334e-01  1.75009217e-01  1.79988420e-01  1.85679044e-01