Generated by Psi4
     FORCE                           RHF                       TESTBAS
Number of atoms                            I               32
Charge                                     I                0
Multiplicity                               I                1
Number of electrons                        I              114
Number of alpha electrons                  I               57
Number of beta electrons                   I               57
Number of basis functions                  I              319
Number of independent functions            I              319
Atomic numbers                             I   N=          32
           6           6           6           1           1           7
           6           6           6           6           6           1
           8           1           1           1           8           1
           1           8           6           1           1           1
           6           1           1           1           6           1
           1           1
Nuclear charges                            R   N=          32
  6.00000000e+00  6.00000000e+00  6.00000000e+00  1.00000000e+00  1.00000000e+00
  7.00000000e+00  6.00000000e+00  6.00000000e+00  6.00000000e+00  6.00000000e+00
  6.00000000e+00  1.00000000e+00  8.00000000e+00  1.00000000e+00  1.00000000e+00
  1.00000000e+00  8.00000000e+00  1.00000000e+00  1.00000000e+00  8.00000000e+00
  6.00000000e+00  1.00000000e+00  1.00000000e+00  1.00000000e+00  6.00000000e+00
  1.00000000e+00  1.00000000e+00  1.00000000e+00  6.00000000e+00  1.00000000e+00
  1.00000000e+00  1.00000000e+00
Current cartesian coordinates              R   N=          96
 -1.87487503e+00 -1.76376873e+00  1.16443433e+00 -4.04923870e+00 -3.07449610e+00
  2.48285620e+00 -6.35304814e+00 -1.31800045e+00  2.90704345e+00 -3.42687211e+00
 -3.80628262e+00  4.32465358e+00 -4.66340106e+00 -4.71329171e+00  1.36637601e+00
 -8.54694672e+00 -2.47679386e+00  4.12970639e+00 -6.83491934e-02 -4.25024944e-01
  2.57592239e+00  1.89381983e+00  8.74412609e-01  1.37158604e+00  2.06850000e+00
  8.64354495e-01 -1.29084186e+00  2.76996606e-01 -4.96980077e-01 -2.68882691e+00
 -1.67719554e+00 -1.79547663e+00 -1.46702703e+00 -2.04016135e-01 -4.22802011e-01
  4.62191955e+00  3.72764813e+00  2.21713491e+00  2.59824858e+00 -8.08696703e+00
 -3.18122320e+00  5.86127525e+00 -9.22740552e+00 -3.94498977e+00  3.08714322e+00
 -3.03362333e+00 -2.81707045e+00 -2.62194296e+00  4.02741410e+00  2.06331662e+00
 -2.50523795e+00 -6.97252591e+00 -5.53270388e-01  1.08305664e+00 -5.77148948e+00
  3.07975399e-01  4.05441042e+00  3.29876770e-01 -4.97968289e-01 -5.28791711e+00
  3.69635986e+00  2.27510856e+00  5.28305090e+00  5.32628303e+00  3.41214790e+00
  5.83405498e+00  3.88355864e+00  3.68846657e-01  6.07999960e+00  1.96112588e+00
  3.15809884e+00  6.00115040e+00  3.76250165e+00  4.74965708e+00 -2.73211277e+00
  5.43036531e+00  5.40193260e+00 -3.75910979e+00  3.70010861e+00  5.64468221e+00
 -8.66365163e-01  2.05232418e+00  5.22179076e+00 -3.80528063e+00  2.39258936e+00
 -1.83658157e+00 -6.42671713e+00  2.11918714e+00 -1.66369926e+00 -8.46553465e+00
  2.33499691e+00 -3.83952498e+00 -5.88671145e+00  4.20838615e+00 -1.01046891e+00
 -5.88427457e+00
Integer atomic weights                     I   N=          32
          12          12          12           1           1          14
          12          12          12          12          12           1
          15           1           1           1          15           1
           1          15          12           1           1           1
          12           1           1           1          12           1
           1           1
Real atomic weights                        R   N=          32
  1.20000000e+01  1.20000000e+01  1.20000000e+01  1.00782503e+00  1.00782503e+00
  1.40030740e+01  1.20000000e+01  1.20000000e+01  1.20000000e+01  1.20000000e+01
  1.20000000e+01  1.00782503e+00  1.59949146e+01  1.00782503e+00  1.00782503e+00
  1.00782503e+00  1.59949146e+01  1.00782503e+00  1.00782503e+00  1.59949146e+01
  1.20000000e+01  1.00782503e+00  1.00782503e+00  1.00782503e+00  1.20000000e+01
  1.00782503e+00  1.00782503e+00  1.00782503e+00  1.20000000e+01  1.00782503e+00
  1.00782503e+00  1.00782503e+00
Number of primitive shells                 I              323
Number of contracted shells                I              154
Pure/Cartesian d shells                    I                1
Pure/Cartesian f shells                    I                1
Highest angular momentum                   I                2
Largest degree of contraction              I                6
Shell types                                I   N=         154
           0           0           1           0           1           2
           0           1           0           0           1           0
           1           2           0           1           0           0
           1           0           1           2           0           1
           0           0           0           0           0           0
           1           0           1           2           0           1
           0           0           1           0           1           2
           0           1           0           0           1           0
           1           2           0           1           0           0
           1           0           1           2           0           1
           0           0           1           0           1           2
           0           1           0           0           1           0
           1           2           0           1           0           0
           0           0           1           0           1           2
           0           1           0           0           0           0
           0           0           0           0           1           0
           1           2           0           1           0           0
           0           0           0           0           1           0
           1           2           0           1           0           0
           1           0           1           2           0           1
           0           0           0           0           0           0
           0           0           1           0           1           2
           0           1           0           0           0           0
           0           0           0           0           1           0
           1           2           0           1           0           0
           0           0           0           0
Number of primitives per shell             I   N=         154
           6           3           3           1           1           1
           1           1           6           3           3           1
           1           1           1           1           6           3
           3           1           1           1           1           1
           3           1           3           1           6           3
           3           1           1           1           1           1
           6           3           3           1           1           1
           1           1           6           3           3           1
           1           1           1           1           6           3
           3           1           1           1           1           1
           6           3           3           1           1           1
           1           1           6           3           3           1
           1           1           1           1           3           1
           6           3           3           1           1           1
           1           1           3           1           3           1
           3           1           6           3           3           1
           1           1           1           1           3           1
           3           1           6           3           3           1
           1           1           1           1           6           3
           3           1           1           1           1           1
           3           1           3           1           3           1
           6           3           3           1           1           1
           1           1           3           1           3           1
           3           1           6           3           3           1
           1           1           1           1           3           1
           3           1           3           1
Shell to atom map                          I   N=         154
           1           1           1           1           1           1
           1           1           2           2           2           2
           2           2           2           2           3           3
           3           3           3           3           3           3
           4           4           5           5           6           6
           6           6           6           6           6           6
           7           7           7           7           7           7
           7           7           8           8           8           8
           8           8           8           8           9           9
           9           9           9           9           9           9
          10          10          10          10          10          10
          10          10          11          11          11          11
          11          11          11          11          12          12
          13          13          13          13          13          13
          13          13          14          14          15          15
          16          16          17          17          17          17
          17          17          17          17          18          18
          19          19          20          20          20          20
          20          20          20          20          21          21
          21          21          21          21          21          21
          22          22          23          23          24          24
          25          25          25          25          25          25
          25          25          26          26          27          27
          28          28          29          29          29          29
          29          29          29          29          30          30
          31          31          32          32
Primitive exponents                        R   N=         323
  3.04752490e+03  4.57369510e+02  1.03948690e+02  2.92101550e+01  9.28666300e+00
  3.16392700e+00  7.86827240e+00  1.88128850e+00  5.44249300e-01  7.86827240e+00
  1.88128850e+00  5.44249300e-01  1.68714400e-01  1.68714400e-01  8.00000000e-01
  4.38000000e-02  4.38000000e-02  3.04752490e+03  4.57369510e+02  1.03948690e+02
  2.92101550e+01  9.28666300e+00  3.16392700e+00  7.86827240e+00  1.88128850e+00
  5.44249300e-01  7.86827240e+00  1.88128850e+00  5.44249300e-01  1.68714400e-01
  1.68714400e-01  8.00000000e-01  4.38000000e-02  4.38000000e-02  3.04752490e+03
  4.57369510e+02  1.03948690e+02  2.92101550e+01  9.28666300e+00  3.16392700e+00
  7.86827240e+00  1.88128850e+00  5.44249300e-01  7.86827240e+00  1.88128850e+00
  5.44249300e-01  1.68714400e-01  1.68714400e-01  8.00000000e-01  4.38000000e-02
  4.38000000e-02  1.87311370e+01  2.82539370e+00  6.40121700e-01  1.61277800e-01
  1.87311370e+01  2.82539370e+00  6.40121700e-01  1.61277800e-01  4.17351100e+03
  6.27457900e+02  1.42902100e+02  4.02343300e+01  1.28202100e+01  4.39043700e+00
  1.16263580e+01  2.71628000e+00  7.72218000e-01  1.16263580e+01  2.71628000e+00
  7.72218000e-01  2.12031300e-01  2.12031300e-01  8.00000000e-01  6.39000000e-02
  6.39000000e-02  3.04752490e+03  4.57369510e+02  1.03948690e+02  2.92101550e+01
  9.28666300e+00  3.16392700e+00  7.86827240e+00  1.88128850e+00  5.44249300e-01
  7.86827240e+00  1.88128850e+00  5.44249300e-01  1.68714400e-01  1.68714400e-01
  8.00000000e-01  4.38000000e-02  4.38000000e-02  3.04752490e+03  4.57369510e+02
  1.03948690e+02  2.92101550e+01  9.28666300e+00  3.16392700e+00  7.86827240e+00
  1.88128850e+00  5.44249300e-01  7.86827240e+00  1.88128850e+00  5.44249300e-01
  1.68714400e-01  1.68714400e-01  8.00000000e-01  4.38000000e-02  4.38000000e-02
  3.04752490e+03  4.57369510e+02  1.03948690e+02  2.92101550e+01  9.28666300e+00
  3.16392700e+00  7.86827240e+00  1.88128850e+00  5.44249300e-01  7.86827240e+00
  1.88128850e+00  5.44249300e-01  1.68714400e-01  1.68714400e-01  8.00000000e-01
  4.38000000e-02  4.38000000e-02  3.04752490e+03  4.57369510e+02  1.03948690e+02
  2.92101550e+01  9.28666300e+00  3.16392700e+00  7.86827240e+00  1.88128850e+00
  5.44249300e-01  7.86827240e+00  1.88128850e+00  5.44249300e-01  1.68714400e-01
  1.68714400e-01  8.00000000e-01  4.38000000e-02  4.38000000e-02  3.04752490e+03
  4.57369510e+02  1.03948690e+02  2.92101550e+01  9.28666300e+00  3.16392700e+00
  7.86827240e+00  1.88128850e+00  5.44249300e-01  7.86827240e+00  1.88128850e+00
  5.44249300e-01  1.68714400e-01  1.68714400e-01  8.00000000e-01  4.38000000e-02
  4.38000000e-02  1.87311370e+01  2.82539370e+00  6.40121700e-01  1.61277800e-01
  5.48467170e+03  8.25234950e+02  1.88046960e+02  5.29645000e+01  1.68975700e+01
  5.79963530e+00  1.55396160e+01  3.59993360e+00  1.01376180e+00  1.55396160e+01
  3.59993360e+00  1.01376180e+00  2.70005800e-01  2.70005800e-01  8.00000000e-01
  8.45000000e-02  8.45000000e-02  1.87311370e+01  2.82539370e+00  6.40121700e-01
  1.61277800e-01  1.87311370e+01  2.82539370e+00  6.40121700e-01  1.61277800e-01
  1.87311370e+01  2.82539370e+00  6.40121700e-01  1.61277800e-01  5.48467170e+03
  8.25234950e+02  1.88046960e+02  5.29645000e+01  1.68975700e+01  5.79963530e+00
  1.55396160e+01  3.59993360e+00  1.01376180e+00  1.55396160e+01  3.59993360e+00
  1.01376180e+00  2.70005800e-01  2.70005800e-01  8.00000000e-01  8.45000000e-02
  8.45000000e-02  1.87311370e+01  2.82539370e+00  6.40121700e-01  1.61277800e-01
  1.87311370e+01  2.82539370e+00  6.40121700e-01  1.61277800e-01  5.48467170e+03
  8.25234950e+02  1.88046960e+02  5.29645000e+01  1.68975700e+01  5.79963530e+00
  1.55396160e+01  3.59993360e+00  1.01376180e+00  1.55396160e+01  3.59993360e+00
  1.01376180e+00  2.70005800e-01  2.70005800e-01  8.00000000e-01  8.45000000e-02
  8.45000000e-02  3.04752490e+03  4.57369510e+02  1.03948690e+02  2.92101550e+01
  9.28666300e+00  3.16392700e+00  7.86827240e+00  1.88128850e+00  5.44249300e-01
  7.86827240e+00  1.88128850e+00  5.44249300e-01  1.68714400e-01  1.68714400e-01
  8.00000000e-01  4.38000000e-02  4.38000000e-02  1.87311370e+01  2.82539370e+00
  6.40121700e-01  1.61277800e-01  1.87311370e+01  2.82539370e+00  6.40121700e-01
  1.61277800e-01  1.87311370e+01  2.82539370e+00  6.40121700e-01  1.61277800e-01
  3.04752490e+03  4.57369510e+02  1.03948690e+02  2.92101550e+01  9.28666300e+00
  3.16392700e+00  7.86827240e+00  1.88128850e+00  5.44249300e-01  7.86827240e+00
  1.88128850e+00  5.44249300e-01  1.68714400e-01  1.68714400e-01  8.00000000e-01
  4.38000000e-02  4.38000000e-02  1.87311370e+01  2.82539370e+00  6.40121700e-01
  1.61277800e-01  1.87311370e+01  2.82539370e+00  6.40121700e-01  1.61277800e-01
  1.87311370e+01  2.82539370e+00  6.40121700e-01  1.61277800e-01  3.04752490e+03
  4.57369510e+02  1.03948690e+02  2.92101550e+01  9.28666300e+00  3.16392700e+00
  7.86827240e+00  1.88128850e+00  5.44249300e-01  7.86827240e+00  1.88128850e+00
  5.44249300e-01  1.68714400e-01  1.68714400e-01  8.00000000e-01  4.38000000e-02
  4.38000000e-02  1.87311370e+01  2.82539370e+00  6.40121700e-01  1.61277800e-01
  1.87311370e+01  2.82539370e+00  6.40121700e-01  1.61277800e-01  1.87311370e+01
  2.82539370e+00  6.40121700e-01  1.61277800e-01
Contraction coefficients                   R   N=         323
  1.83470016e-03  1.40373012e-02  6.88426061e-02  2.32184421e-01  4.67941342e-01
  3.62312032e-01 -1.19332409e-01 -1.60854212e-01  1.14345648e+00  6.89990956e-02
  3.16423980e-01  7.44308252e-01  1.00000000e+00  1.00000000e+00  1.00000000e+00
  1.00000000e+00  1.00000000e+00  1.83470016e-03  1.40373012e-02  6.88426061e-02
  2.32184421e-01  4.67941342e-01  3.62312032e-01 -1.19332409e-01 -1.60854212e-01
  1.14345648e+00  6.89990956e-02  3.16423980e-01  7.44308252e-01  1.00000000e+00
  1.00000000e+00  1.00000000e+00  1.00000000e+00  1.00000000e+00  1.83470016e-03
  1.40373012e-02  6.88426061e-02  2.32184421e-01  4.67941342e-01  3.62312032e-01
 -1.19332409e-01 -1.60854212e-01  1.14345648e+00  6.89990956e-02  3.16423980e-01
  7.44308252e-01  1.00000000e+00  1.00000000e+00  1.00000000e+00  1.00000000e+00
  1.00000000e+00  3.34945995e-02  2.34726947e-01  8.13757318e-01  1.00000000e+00
  3.34945995e-02  2.34726947e-01  8.13757318e-01  1.00000000e+00  1.83479944e-03
  1.39949958e-02  6.85869792e-02  2.32240930e-01  4.69069858e-01  3.60454891e-01
 -1.14961023e-01 -1.69118034e-01  1.14585223e+00  6.75800232e-02  3.23907111e-01
  7.40895255e-01  1.00000000e+00  1.00000000e+00  1.00000000e+00  1.00000000e+00
  1.00000000e+00  1.83470016e-03  1.40373012e-02  6.88426061e-02  2.32184421e-01
  4.67941342e-01  3.62312032e-01 -1.19332409e-01 -1.60854212e-01  1.14345648e+00
  6.89990956e-02  3.16423980e-01  7.44308252e-01  1.00000000e+00  1.00000000e+00
  1.00000000e+00  1.00000000e+00  1.00000000e+00  1.83470016e-03  1.40373012e-02
  6.88426061e-02  2.32184421e-01  4.67941342e-01  3.62312032e-01 -1.19332409e-01
 -1.60854212e-01  1.14345648e+00  6.89990956e-02  3.16423980e-01  7.44308252e-01
  1.00000000e+00  1.00000000e+00  1.00000000e+00  1.00000000e+00  1.00000000e+00
  1.83470016e-03  1.40373012e-02  6.88426061e-02  2.32184421e-01  4.67941342e-01
  3.62312032e-01 -1.19332409e-01 -1.60854212e-01  1.14345648e+00  6.89990956e-02
  3.16423980e-01  7.44308252e-01  1.00000000e+00  1.00000000e+00  1.00000000e+00
  1.00000000e+00  1.00000000e+00  1.83470016e-03  1.40373012e-02  6.88426061e-02
  2.32184421e-01  4.67941342e-01  3.62312032e-01 -1.19332409e-01 -1.60854212e-01
  1.14345648e+00  6.89990956e-02  3.16423980e-01  7.44308252e-01  1.00000000e+00
  1.00000000e+00  1.00000000e+00  1.00000000e+00  1.00000000e+00  1.83470016e-03
  1.40373012e-02  6.88426061e-02  2.32184421e-01  4.67941342e-01  3.62312032e-01
 -1.19332409e-01 -1.60854212e-01  1.14345648e+00  6.89990956e-02  3.16423980e-01
  7.44308252e-01  1.00000000e+00  1.00000000e+00  1.00000000e+00  1.00000000e+00
  1.00000000e+00  3.34945995e-02  2.34726947e-01  8.13757318e-01  1.00000000e+00
  1.83109981e-03  1.39500985e-02  6.84450927e-02  2.32714275e-01  4.70192950e-01
  3.58520862e-01 -1.10777504e-01 -1.48026305e-01  1.13076704e+00  7.08742995e-02
  3.39752798e-01  7.27158595e-01  1.00000000e+00  1.00000000e+00  1.00000000e+00
  1.00000000e+00  1.00000000e+00  3.34945995e-02  2.34726947e-01  8.13757318e-01
  1.00000000e+00  3.34945995e-02  2.34726947e-01  8.13757318e-01  1.00000000e+00
  3.34945995e-02  2.34726947e-01  8.13757318e-01  1.00000000e+00  1.83109981e-03
  1.39500985e-02  6.84450927e-02  2.32714275e-01  4.70192950e-01  3.58520862e-01
 -1.10777504e-01 -1.48026305e-01  1.13076704e+00  7.08742995e-02  3.39752798e-01
  7.27158595e-01  1.00000000e+00  1.00000000e+00  1.00000000e+00  1.00000000e+00
  1.00000000e+00  3.34945995e-02  2.34726947e-01  8.13757318e-01  1.00000000e+00
  3.34945995e-02  2.34726947e-01  8.13757318e-01  1.00000000e+00  1.83109981e-03
  1.39500985e-02  6.84450927e-02  2.32714275e-01  4.70192950e-01  3.58520862e-01
 -1.10777504e-01 -1.48026305e-01  1.13076704e+00  7.08742995e-02  3.39752798e-01
  7.27158595e-01  1.00000000e+00  1.00000000e+00  1.00000000e+00  1.00000000e+00
  1.00000000e+00  1.83470016e-03  1.40373012e-02  6.88426061e-02  2.32184421e-01
  4.67941342e-01  3.62312032e-01 -1.19332409e-01 -1.60854212e-01  1.14345648e+00
  6.89990956e-02  3.16423980e-01  7.44308252e-01  1.00000000e+00  1.00000000e+00
  1.00000000e+00  1.00000000e+00  1.00000000e+00  3.34945995e-02  2.34726947e-01
  8.13757318e-01  1.00000000e+00  3.34945995e-02  2.34726947e-01  8.13757318e-01
  1.00000000e+00  3.34945995e-02  2.34726947e-01  8.13757318e-01  1.00000000e+00
  1.83470016e-03  1.40373012e-02  6.88426061e-02  2.32184421e-01  4.67941342e-01
  3.62312032e-01 -1.19332409e-01 -1.60854212e-01  1.14345648e+00  6.89990956e-02
  3.16423980e-01  7.44308252e-01  1.00000000e+00  1.00000000e+00  1.00000000e+00
  1.00000000e+00  1.00000000e+00  3.34945995e-02  2.34726947e-01  8.13757318e-01
  1.00000000e+00  3.34945995e-02  2.34726947e-01  8.13757318e-01  1.00000000e+00
  3.34945995e-02  2.34726947e-01  8.13757318e-01  1.00000000e+00  1.83470016e-03
  1.40373012e-02  6.88426061e-02  2.32184421e-01  4.67941342e-01  3.62312032e-01
 -1.19332409e-01 -1.60854212e-01  1.14345648e+00  6.89990956e-02  3.16423980e-01
  7.44308252e-01  1.00000000e+00  1.00000000e+00  1.00000000e+00  1.00000000e+00
  1.00000000e+00  3.34945995e-02  2.34726947e-01  8.13757318e-01  1.00000000e+00
  3.34945995e-02  2.34726947e-01  8.13757318e-01  1.00000000e+00  3.34945995e-02
  2.34726947e-01  8.13757318e-01  1.00000000e+00
Coordinates of each shell                  R   N=         462
 -1.87487503e+00 -1.76376873e+00  1.16443433e+00 -1.87487503e+00 -1.76376873e+00
  1.16443433e+00 -1.87487503e+00 -1.76376873e+00  1.16443433e+00 -1.87487503e+00
 -1.76376873e+00  1.16443433e+00 -1.87487503e+00 -1.76376873e+00  1.16443433e+00
 -1.87487503e+00 -1.76376873e+00  1.16443433e+00 -1.87487503e+00 -1.76376873e+00
  1.16443433e+00 -1.87487503e+00 -1.76376873e+00  1.16443433e+00 -4.04923870e+00
 -3.07449610e+00  2.48285620e+00 -4.04923870e+00 -3.07449610e+00  2.48285620e+00
 -4.04923870e+00 -3.07449610e+00  2.48285620e+00 -4.04923870e+00 -3.07449610e+00
  2.48285620e+00 -4.04923870e+00 -3.07449610e+00  2.48285620e+00 -4.04923870e+00
 -3.07449610e+00  2.48285620e+00 -4.04923870e+00 -3.07449610e+00  2.48285620e+00
 -4.04923870e+00 -3.07449610e+00  2.48285620e+00 -6.35304814e+00 -1.31800045e+00
  2.90704345e+00 -6.35304814e+00 -1.31800045e+00  2.90704345e+00 -6.35304814e+00
 -1.31800045e+00  2.90704345e+00 -6.35304814e+00 -1.31800045e+00  2.90704345e+00
 -6.35304814e+00 -1.31800045e+00  2.90704345e+00 -6.35304814e+00 -1.31800045e+00
  2.90704345e+00 -6.35304814e+00 -1.31800045e+00  2.90704345e+00 -6.35304814e+00
 -1.31800045e+00  2.90704345e+00 -3.42687211e+00 -3.80628262e+00  4.32465358e+00
 -3.42687211e+00 -3.80628262e+00  4.32465358e+00 -4.66340106e+00 -4.71329171e+00
  1.36637601e+00 -4.66340106e+00 -4.71329171e+00  1.36637601e+00 -8.54694672e+00
 -2.47679386e+00  4.12970639e+00 -8.54694672e+00 -2.47679386e+00  4.12970639e+00
 -8.54694672e+00 -2.47679386e+00  4.12970639e+00 -8.54694672e+00 -2.47679386e+00
  4.12970639e+00 -8.54694672e+00 -2.47679386e+00  4.12970639e+00 -8.54694672e+00
 -2.47679386e+00  4.12970639e+00 -8.54694672e+00 -2.47679386e+00  4.12970639e+00
 -8.54694672e+00 -2.47679386e+00  4.12970639e+00 -6.83491934e-02 -4.25024944e-01
  2.57592239e+00 -6.83491934e-02 -4.25024944e-01  2.57592239e+00 -6.83491934e-02
 -4.25024944e-01  2.57592239e+00 -6.83491934e-02 -4.25024944e-01  2.57592239e+00
 -6.83491934e-02 -4.25024944e-01  2.57592239e+00 -6.83491934e-02 -4.25024944e-01
  2.57592239e+00 -6.83491934e-02 -4.25024944e-01  2.57592239e+00 -6.83491934e-02
 -4.25024944e-01  2.57592239e+00  1.89381983e+00  8.74412609e-01  1.37158604e+00
  1.89381983e+00  8.74412609e-01  1.37158604e+00  1.89381983e+00  8.74412609e-01
  1.37158604e+00  1.89381983e+00  8.74412609e-01  1.37158604e+00  1.89381983e+00
  8.74412609e-01  1.37158604e+00  1.89381983e+00  8.74412609e-01  1.37158604e+00
  1.89381983e+00  8.74412609e-01  1.37158604e+00  1.89381983e+00  8.74412609e-01
  1.37158604e+00  2.06850000e+00  8.64354495e-01 -1.29084186e+00  2.06850000e+00
  8.64354495e-01 -1.29084186e+00  2.06850000e+00  8.64354495e-01 -1.29084186e+00
  2.06850000e+00  8.64354495e-01 -1.29084186e+00  2.06850000e+00  8.64354495e-01
 -1.29084186e+00  2.06850000e+00  8.64354495e-01 -1.29084186e+00  2.06850000e+00
  8.64354495e-01 -1.29084186e+00  2.06850000e+00  8.64354495e-01 -1.29084186e+00
  2.76996606e-01 -4.96980077e-01 -2.68882691e+00  2.76996606e-01 -4.96980077e-01
 -2.68882691e+00  2.76996606e-01 -4.96980077e-01 -2.68882691e+00  2.76996606e-01
 -4.96980077e-01 -2.68882691e+00  2.76996606e-01 -4.96980077e-01 -2.68882691e+00
  2.76996606e-01 -4.96980077e-01 -2.68882691e+00  2.76996606e-01 -4.96980077e-01
 -2.68882691e+00  2.76996606e-01 -4.96980077e-01 -2.68882691e+00 -1.67719554e+00
 -1.79547663e+00 -1.46702703e+00 -1.67719554e+00 -1.79547663e+00 -1.46702703e+00
 -1.67719554e+00 -1.79547663e+00 -1.46702703e+00 -1.67719554e+00 -1.79547663e+00
 -1.46702703e+00 -1.67719554e+00 -1.79547663e+00 -1.46702703e+00 -1.67719554e+00
 -1.79547663e+00 -1.46702703e+00 -1.67719554e+00 -1.79547663e+00 -1.46702703e+00
 -1.67719554e+00 -1.79547663e+00 -1.46702703e+00 -2.04016135e-01 -4.22802011e-01
  4.62191955e+00 -2.04016135e-01 -4.22802011e-01  4.62191955e+00  3.72764813e+00
  2.21713491e+00  2.59824858e+00  3.72764813e+00  2.21713491e+00  2.59824858e+00
  3.72764813e+00  2.21713491e+00  2.59824858e+00  3.72764813e+00  2.21713491e+00
  2.59824858e+00  3.72764813e+00  2.21713491e+00  2.59824858e+00  3.72764813e+00
  2.21713491e+00  2.59824858e+00  3.72764813e+00  2.21713491e+00  2.59824858e+00
  3.72764813e+00  2.21713491e+00  2.59824858e+00 -8.08696703e+00 -3.18122320e+00
  5.86127525e+00 -8.08696703e+00 -3.18122320e+00  5.86127525e+00 -9.22740552e+00
 -3.94498977e+00  3.08714322e+00 -9.22740552e+00 -3.94498977e+00  3.08714322e+00
 -3.03362333e+00 -2.81707045e+00 -2.62194296e+00 -3.03362333e+00 -2.81707045e+00
 -2.62194296e+00  4.02741410e+00  2.06331662e+00 -2.50523795e+00  4.02741410e+00
  2.06331662e+00 -2.50523795e+00  4.02741410e+00  2.06331662e+00 -2.50523795e+00
  4.02741410e+00  2.06331662e+00 -2.50523795e+00  4.02741410e+00  2.06331662e+00
 -2.50523795e+00  4.02741410e+00  2.06331662e+00 -2.50523795e+00  4.02741410e+00
  2.06331662e+00 -2.50523795e+00  4.02741410e+00  2.06331662e+00 -2.50523795e+00
 -6.97252591e+00 -5.53270388e-01  1.08305664e+00 -6.97252591e+00 -5.53270388e-01
  1.08305664e+00 -5.77148948e+00  3.07975399e-01  4.05441042e+00 -5.77148948e+00
  3.07975399e-01  4.05441042e+00  3.29876770e-01 -4.97968289e-01 -5.28791711e+00
  3.29876770e-01 -4.97968289e-01 -5.28791711e+00  3.29876770e-01 -4.97968289e-01
 -5.28791711e+00  3.29876770e-01 -4.97968289e-01 -5.28791711e+00  3.29876770e-01
 -4.97968289e-01 -5.28791711e+00  3.29876770e-01 -4.97968289e-01 -5.28791711e+00
  3.29876770e-01 -4.97968289e-01 -5.28791711e+00  3.29876770e-01 -4.97968289e-01
 -5.28791711e+00  3.69635986e+00  2.27510856e+00  5.28305090e+00  3.69635986e+00
  2.27510856e+00  5.28305090e+00  3.69635986e+00  2.27510856e+00  5.28305090e+00
  3.69635986e+00  2.27510856e+00  5.28305090e+00  3.69635986e+00  2.27510856e+00
  5.28305090e+00  3.69635986e+00  2.27510856e+00  5.28305090e+00  3.69635986e+00
  2.27510856e+00  5.28305090e+00  3.69635986e+00  2.27510856e+00  5.28305090e+00
  5.32628303e+00  3.41214790e+00  5.83405498e+00  5.32628303e+00  3.41214790e+00
  5.83405498e+00  3.88355864e+00  3.68846657e-01  6.07999960e+00  3.88355864e+00
  3.68846657e-01  6.07999960e+00  1.96112588e+00  3.15809884e+00  6.00115040e+00
  1.96112588e+00  3.15809884e+00  6.00115040e+00  3.76250165e+00  4.74965708e+00
 -2.73211277e+00  3.76250165e+00  4.74965708e+00 -2.73211277e+00  3.76250165e+00
  4.74965708e+00 -2.73211277e+00  3.76250165e+00  4.74965708e+00 -2.73211277e+00
  3.76250165e+00  4.74965708e+00 -2.73211277e+00  3.76250165e+00  4.74965708e+00
 -2.73211277e+00  3.76250165e+00  4.74965708e+00 -2.73211277e+00  3.76250165e+00
  4.74965708e+00 -2.73211277e+00  5.43036531e+00  5.40193260e+00 -3.75910979e+00
  5.43036531e+00  5.40193260e+00 -3.75910979e+00  3.70010861e+00  5.64468221e+00
 -8.66365163e-01  3.70010861e+00  5.64468221e+00 -8.66365163e-01  2.05232418e+00
  5.22179076e+00 -3.80528063e+00  2.05232418e+00  5.22179076e+00 -3.80528063e+00
  2.39258936e+00 -1.83658157e+00 -6.42671713e+00  2.39258936e+00 -1.83658157e+00
 -6.42671713e+00  2.39258936e+00 -1.83658157e+00 -6.42671713e+00  2.39258936e+00
 -1.83658157e+00 -6.42671713e+00  2.39258936e+00 -1.83658157e+00 -6.42671713e+00
  2.39258936e+00 -1.83658157e+00 -6.42671713e+00  2.39258936e+00 -1.83658157e+00
 -6.42671713e+00  2.39258936e+00 -1.83658157e+00 -6.42671713e+00  2.11918714e+00
 -1.66369926e+00 -8.46553465e+00  2.11918714e+00 -1.66369926e+00 -8.46553465e+00
  2.33499691e+00 -3.83952498e+00 -5.88671145e+00  2.33499691e+00 -3.83952498e+00
 -5.88671145e+00  4.20838615e+00 -1.01046891e+00 -5.88427457e+00  4.20838615e+00
 -1.01046891e+00 -5.88427457e+00
Total Energy                               R     -7.098036835437499e+02
Alpha Orbital Energies                     R   N=         319
 -1.91918123e+01 -1.91691830e+01 -1.91687299e+01 -1.43255844e+01 -1.02568279e+01
 -1.02494355e+01 -1.02460791e+01 -1.02408921e+01 -1.02308145e+01 -1.02291526e+01
 -1.02143631e+01 -1.02043084e+01 -1.01934886e+01 -1.01928490e+01 -1.01856679e+01
 -1.07897143e+00 -1.05828886e+00 -1.03949543e+00 -8.88370561e-01 -8.55821757e-01
 -7.83081458e-01 -7.58565560e-01 -7.25573994e-01 -7.13817553e-01 -6.91408802e-01
 -6.69154132e-01 -6.24865518e-01 -6.00102958e-01 -5.81351315e-01 -5.33062625e-01
 -5.20395513e-01 -5.09307248e-01 -5.03525684e-01 -4.86243737e-01 -4.80970603e-01
 -4.63766787e-01 -4.55918765e-01 -4.51190181e-01 -4.45754035e-01 -4.40050434e-01
 -4.35414804e-01 -4.27589779e-01 -4.09597179e-01 -4.00666144e-01 -3.82311964e-01
 -3.77196025e-01 -3.73361430e-01 -3.55656550e-01 -3.53116076e-01 -3.43445333e-01
 -3.33790226e-01 -3.15502315e-01 -2.86424561e-01 -2.71725859e-01 -2.47717318e-01
 -2.31977073e-01 -2.19972822e-01 -1.28665029e-02 -3.28378661e-03  6.20250135e-04
  5.62399990e-03  1.31796436e-02  2.13773711e-02  2.89612161e-02  2.91975891e-02
  2.97530494e-02  3.49160412e-02  4.48031675e-02  4.99214276e-02  5.41509419e-02
  5.79326319e-02  6.36036565e-02  6.69552689e-02  7.65451386e-02  8.07849355e-02