Generated by Psi4
     FORCE                           RHF                       TESTBAS
Number of atoms                            I               27
Charge                                     I                0
Multiplicity                               I                1
Number of electrons                        I              116
Number of alpha electrons                  I               58
Number of beta electrons                   I               58
Number of basis functions                  I              343
Number of independent functions            I              343
Atomic numbers                             I   N=          27
           6           6           6           6           7           6
           6           6           7           6           1           1
           1           1           8           6           6           6
           6           6           6           1           1           1
           1           1           1
Nuclear charges                            R   N=          27
  6.00000000e+00  6.00000000e+00  6.00000000e+00  6.00000000e+00  7.00000000e+00
  6.00000000e+00  6.00000000e+00  6.00000000e+00  7.00000000e+00  6.00000000e+00
  1.00000000e+00  1.00000000e+00  1.00000000e+00  1.00000000e+00  8.00000000e+00
  6.00000000e+00  6.00000000e+00  6.00000000e+00  6.00000000e+00  6.00000000e+00
  6.00000000e+00  1.00000000e+00  1.00000000e+00  1.00000000e+00  1.00000000e+00
  1.00000000e+00  1.00000000e+00
Current cartesian coordinates              R   N=          81
  5.01368972e+00  2.44554851e+00  1.98608956e+00  2.96501551e+00  1.80750577e+00
  4.17601099e-01  6.91411332e+00  4.01225932e+00  1.08588799e+00  6.78967233e+00
  4.96249757e+00 -1.39728750e+00  8.43008043e-01  2.17672510e+00 -3.68946195e+00
  2.83532488e+00  2.75626425e+00 -2.07905199e+00  4.77914085e+00  4.34698053e+00
 -2.96389731e+00 -8.93986711e-01  7.06828782e-01 -2.81760261e+00 -9.63126990e-01
 -3.54666540e-01 -4.27349643e-01  9.65589237e-01  1.37586953e-01  1.37246360e+00
  4.65048088e+00  5.06280623e+00 -4.88267802e+00  8.28280325e+00  6.18997059e+00
 -2.09301580e+00  8.49783404e+00  4.50714694e+00  2.29522292e+00  5.06212635e+00
  1.68571090e+00  3.89093682e+00  8.96233450e-01 -7.91165961e-01  3.49030248e+00
 -3.00696004e+00 -2.04241722e+00  2.02593990e-01 -3.37195828e+00 -4.22200540e+00
 -1.24287419e+00 -5.39330109e+00 -5.83124520e+00 -6.94485321e-01 -7.02015032e+00
 -5.27638137e+00  1.30811771e+00 -6.62584929e+00 -3.10332685e+00  2.76080525e+00
 -4.62502680e+00 -1.47635899e+00  2.21180818e+00 -2.07139098e+00 -4.66506562e+00
 -2.76913960e+00 -5.67753136e+00 -7.52380046e+00 -1.82188861e+00 -8.58424915e+00
 -6.53411643e+00  1.74239629e+00 -7.88132012e+00 -2.66924279e+00  4.32660988e+00
 -2.49781858e+00  2.23738444e-01 -4.00727674e+00 -4.30245628e+00  2.05744945e-01
  3.33759185e+00
Integer atomic weights                     I   N=          27
          12          12          12          12          14          12
          12          12          14          12           1           1
           1           1          15          12          12          12
          12          12          12           1           1           1
           1           1           1
Real atomic weights                        R   N=          27
  1.20000000e+01  1.20000000e+01  1.20000000e+01  1.20000000e+01  1.40030740e+01
  1.20000000e+01  1.20000000e+01  1.20000000e+01  1.40030740e+01  1.20000000e+01
  1.00782503e+00  1.00782503e+00  1.00782503e+00  1.00782503e+00  1.59949146e+01
  1.20000000e+01  1.20000000e+01  1.20000000e+01  1.20000000e+01  1.20000000e+01
  1.20000000e+01  1.00782503e+00  1.00782503e+00  1.00782503e+00  1.00782503e+00
  1.00782503e+00  1.00782503e+00
Number of primitive shells                 I              329
Number of contracted shells                I              156
Pure/Cartesian d shells                    I                1
Pure/Cartesian f shells                    I                1
Highest angular momentum                   I                2
Largest degree of contraction              I                6
Shell types                                I   N=         156
           0           0           1           0           1           2
           0           1           0           0           1           0
           1           2           0           1           0           0
           1           0           1           2           0           1
           0           0           1           0           1           2
           0           1           0           0           1           0
           1           2           0           1           0           0
           1           0           1           2           0           1
           0           0           1           0           1           2
           0           1           0           0           1           0
           1           2           0           1           0           0
           1           0           1           2           0           1
           0           0           1           0           1           2
           0           1           0           0           0           0
           0           0           0           0           0           0
           1           0           1           2           0           1
           0           0           1           0           1           2
           0           1           0           0           1           0
           1           2           0           1           0           0
           1           0           1           2           0           1
           0           0           1           0           1           2
           0           1           0           0           1           0
           1           2           0           1           0           0
           1           0           1           2           0           1
           0           0           0           0           0           0
           0           0           0           0           0           0
Number of primitives per shell             I   N=         156
           6           3           3           1           1           1
           1           1           6           3           3           1
           1           1           1           1           6           3
           3           1           1           1           1           1
           6           3           3           1           1           1
           1           1           6           3           3           1
           1           1           1           1           6           3
           3           1           1           1           1           1
           6           3           3           1           1           1
           1           1           6           3           3           1
           1           1           1           1           6           3
           3           1           1           1           1           1
           6           3           3           1           1           1
           1           1           3           1           3           1
           3           1           3           1           6           3
           3           1           1           1           1           1
           6           3           3           1           1           1
           1           1           6           3           3           1
           1           1           1           1           6           3
           3           1           1           1           1           1
           6           3           3           1           1           1
           1           1           6           3           3           1
           1           1           1           1           6           3
           3           1           1           1           1           1
           3           1           3           1           3           1
           3           1           3           1           3           1
Shell to atom map                          I   N=         156
           1           1           1           1           1           1
           1           1           2           2           2           2
           2           2           2           2           3           3
           3           3           3           3           3           3
           4           4           4           4           4           4
           4           4           5           5           5           5
           5           5           5           5           6           6
           6           6           6           6           6           6
           7           7           7           7           7           7
           7           7           8           8           8           8
           8           8           8           8           9           9
           9           9           9           9           9           9
          10          10          10          10          10          10
          10          10          11          11          12          12
          13          13          14          14          15          15
          15          15          15          15          15          15
          16          16          16          16          16          16
          16          16          17          17          17          17
          17          17          17          17          18          18
          18          18          18          18          18          18
          19          19          19          19          19          19
          19          19          20          20          20          20
          20          20          20          20          21          21
          21          21          21          21          21          21
          22          22          23          23          24          24
          25          25          26          26          27          27
Primitive exponents                        R   N=         329
  3.04752490e+03  4.57369510e+02  1.03948690e+02  2.92101550e+01  9.28666300e+00
  3.16392700e+00  7.86827240e+00  1.88128850e+00  5.44249300e-01  7.86827240e+00
  1.88128850e+00  5.44249300e-01  1.68714400e-01  1.68714400e-01  8.00000000e-01
  4.38000000e-02  4.38000000e-02  3.04752490e+03  4.57369510e+02  1.03948690e+02
  2.92101550e+01  9.28666300e+00  3.16392700e+00  7.86827240e+00  1.88128850e+00
  5.44249300e-01  7.86827240e+00  1.88128850e+00  5.44249300e-01  1.68714400e-01
  1.68714400e-01  8.00000000e-01  4.38000000e-02  4.38000000e-02  3.04752490e+03
  4.57369510e+02  1.03948690e+02  2.92101550e+01  9.28666300e+00  3.16392700e+00
  7.86827240e+00  1.88128850e+00  5.44249300e-01  7.86827240e+00  1.88128850e+00
  5.44249300e-01  1.68714400e-01  1.68714400e-01  8.00000000e-01  4.38000000e-02
  4.38000000e-02  3.04752490e+03  4.57369510e+02  1.03948690e+02  2.92101550e+01
  9.28666300e+00  3.16392700e+00  7.86827240e+00  1.88128850e+00  5.44249300e-01
  7.86827240e+00  1.88128850e+00  5.44249300e-01  1.68714400e-01  1.68714400e-01
  8.00000000e-01  4.38000000e-02  4.38000000e-02  4.17351100e+03  6.27457900e+02
  1.42902100e+02  4.02343300e+01  1.28202100e+01  4.39043700e+00  1.16263580e+01
  2.71628000e+00  7.72218000e-01  1.16263580e+01  2.71628000e+00  7.72218000e-01
  2.12031300e-01  2.12031300e-01  8.00000000e-01  6.39000000e-02  6.39000000e-02
  3.04752490e+03  4.57369510e+02  1.03948690e+02  2.92101550e+01  9.28666300e+00
  3.16392700e+00  7.86827240e+00  1.88128850e+00  5.44249300e-01  7.86827240e+00
  1.88128850e+00  5.44249300e-01  1.68714400e-01  1.68714400e-01  8.00000000e-01
  4.38000000e-02  4.38000000e-02  3.04752490e+03  4.57369510e+02  1.03948690e+02
  2.92101550e+01  9.28666300e+00  3.16392700e+00  7.86827240e+00  1.88128850e+00
  5.44249300e-01  7.86827240e+00  1.88128850e+00  5.44249300e-01  1.68714400e-01
  1.68714400e-01  8.00000000e-01  4.38000000e-02  4.38000000e-02  3.04752490e+03
  4.57369510e+02  1.03948690e+02  2.92101550e+01  9.28666300e+00  3.16392700e+00
  7.86827240e+00  1.88128850e+00  5.44249300e-01  7.86827240e+00  1.88128850e+00
  5.44249300e-01  1.68714400e-01  1.68714400e-01  8.00000000e-01  4.38000000e-02
  4.38000000e-02  4.17351100e+03  6.27457900e+02  1.42902100e+02  4.02343300e+01
  1.28202100e+01  4.39043700e+00  1.16263580e+01  2.71628000e+00  7.72218000e-01
  1.16263580e+01  2.71628000e+00  7.72218000e-01  2.12031300e-01  2.12031300e-01
  8.00000000e-01  6.39000000e-02  6.39000000e-02  3.04752490e+03  4.57369510e+02
  1.03948690e+02  2.92101550e+01  9.28666300e+00  3.16392700e+00  7.86827240e+00
  1.88128850e+00  5.44249300e-01  7.86827240e+00  1.88128850e+00  5.44249300e-01
  1.68714400e-01  1.68714400e-01  8.00000000e-01  4.38000000e-02  4.38000000e-02
  1.87311370e+01  2.82539370e+00  6.40121700e-01  1.61277800e-01  1.87311370e+01
  2.82539370e+00  6.40121700e-01  1.61277800e-01  1.87311370e+01  2.82539370e+00
  6.40121700e-01  1.61277800e-01  1.87311370e+01  2.82539370e+00  6.40121700e-01
  1.61277800e-01  5.48467170e+03  8.25234950e+02  1.88046960e+02  5.29645000e+01
  1.68975700e+01  5.79963530e+00  1.55396160e+01  3.59993360e+00  1.01376180e+00
  1.55396160e+01  3.59993360e+00  1.01376180e+00  2.70005800e-01  2.70005800e-01
  8.00000000e-01  8.45000000e-02  8.45000000e-02  3.04752490e+03  4.57369510e+02
  1.03948690e+02  2.92101550e+01  9.28666300e+00  3.16392700e+00  7.86827240e+00
  1.88128850e+00  5.44249300e-01  7.86827240e+00  1.88128850e+00  5.44249300e-01
  1.68714400e-01  1.68714400e-01  8.00000000e-01  4.38000000e-02  4.38000000e-02
  3.04752490e+03  4.57369510e+02  1.03948690e+02  2.92101550e+01  9.28666300e+00
  3.16392700e+00  7.86827240e+00  1.88128850e+00  5.44249300e-01  7.86827240e+00
  1.88128850e+00  5.44249300e-01  1.68714400e-01  1.68714400e-01  8.00000000e-01
  4.38000000e-02  4.38000000e-02  3.04752490e+03  4.57369510e+02  1.03948690e+02
  2.92101550e+01  9.28666300e+00  3.16392700e+00  7.86827240e+00  1.88128850e+00
  5.44249300e-01  7.86827240e+00  1.88128850e+00  5.44249300e-01  1.68714400e-01
  1.68714400e-01  8.00000000e-01  4.38000000e-02  4.38000000e-02  3.04752490e+03
  4.57369510e+02  1.03948690e+02  2.92101550e+01  9.28666300e+00  3.16392700e+00
  7.86827240e+00  1.88128850e+00  5.44249300e-01  7.86827240e+00  1.88128850e+00
  5.44249300e-01  1.68714400e-01  1.68714400e-01  8.00000000e-01  4.38000000e-02
  4.38000000e-02  3.04752490e+03  4.57369510e+02  1.03948690e+02  2.92101550e+01
  9.28666300e+00  3.16392700e+00  7.86827240e+00  1.88128850e+00  5.44249300e-01
  7.86827240e+00  1.88128850e+00  5.44249300e-01  1.68714400e-01  1.68714400e-01
  8.00000000e-01  4.38000000e-02  4.38000000e-02  3.04752490e+03  4.57369510e+02
  1.03948690e+02  2.92101550e+01  9.28666300e+00  3.16392700e+00  7.86827240e+00
  1.88128850e+00  5.44249300e-01  7.86827240e+00  1.88128850e+00  5.44249300e-01
  1.68714400e-01  1.68714400e-01  8.00000000e-01  4.38000000e-02  4.38000000e-02
  1.87311370e+01  2.82539370e+00  6.40121700e-01  1.61277800e-01  1.87311370e+01
  2.82539370e+00  6.40121700e-01  1.61277800e-01  1.87311370e+01  2.82539370e+00
  6.40121700e-01  1.61277800e-01  1.87311370e+01  2.82539370e+00  6.40121700e-01
  1.61277800e-01  1.87311370e+01  2.82539370e+00  6.40121700e-01  1.61277800e-01
  1.87311370e+01  2.82539370e+00  6.40121700e-01  1.61277800e-01
Contraction coefficients                   R   N=         329
  1.83470016e-03  1.40373012e-02  6.88426061e-02  2.32184421e-01  4.67941342e-01
  3.62312032e-01 -1.19332409e-01 -1.60854212e-01  1.14345648e+00  6.89990956e-02
  3.16423980e-01  7.44308252e-01  1.00000000e+00  1.00000000e+00  1.00000000e+00
  1.00000000e+00  1.00000000e+00  1.83470016e-03  1.40373012e-02  6.88426061e-02
  2.32184421e-01  4.67941342e-01  3.62312032e-01 -1.19332409e-01 -1.60854212e-01
  1.14345648e+00  6.89990956e-02  3.16423980e-01  7.44308252e-01  1.00000000e+00
  1.00000000e+00  1.00000000e+00  1.00000000e+00  1.00000000e+00  1.83470016e-03
  1.40373012e-02  6.88426061e-02  2.32184421e-01  4.67941342e-01  3.62312032e-01
 -1.19332409e-01 -1.60854212e-01  1.14345648e+00  6.89990956e-02  3.16423980e-01
  7.44308252e-01  1.00000000e+00  1.00000000e+00  1.00000000e+00  1.00000000e+00
  1.00000000e+00  1.83470016e-03  1.40373012e-02  6.88426061e-02  2.32184421e-01
  4.67941342e-01  3.62312032e-01 -1.19332409e-01 -1.60854212e-01  1.14345648e+00
  6.89990956e-02  3.16423980e-01  7.44308252e-01  1.00000000e+00  1.00000000e+00
  1.00000000e+00  1.00000000e+00  1.00000000e+00  1.83479944e-03  1.39949958e-02
  6.85869792e-02  2.32240930e-01  4.69069858e-01  3.60454891e-01 -1.14961023e-01
 -1.69118034e-01  1.14585223e+00  6.75800232e-02  3.23907111e-01  7.40895255e-01
  1.00000000e+00  1.00000000e+00  1.00000000e+00  1.00000000e+00  1.00000000e+00
  1.83470016e-03  1.40373012e-02  6.88426061e-02  2.32184421e-01  4.67941342e-01
  3.62312032e-01 -1.19332409e-01 -1.60854212e-01  1.14345648e+00  6.89990956e-02
  3.16423980e-01  7.44308252e-01  1.00000000e+00  1.00000000e+00  1.00000000e+00
  1.00000000e+00  1.00000000e+00  1.83470016e-03  1.40373012e-02  6.88426061e-02
  2.32184421e-01  4.67941342e-01  3.62312032e-01 -1.19332409e-01 -1.60854212e-01
  1.14345648e+00  6.89990956e-02  3.16423980e-01  7.44308252e-01  1.00000000e+00
  1.00000000e+00  1.00000000e+00  1.00000000e+00  1.00000000e+00  1.83470016e-03
  1.40373012e-02  6.88426061e-02  2.32184421e-01  4.67941342e-01  3.62312032e-01
 -1.19332409e-01 -1.60854212e-01  1.14345648e+00  6.89990956e-02  3.16423980e-01
  7.44308252e-01  1.00000000e+00  1.00000000e+00  1.00000000e+00  1.00000000e+00
  1.00000000e+00  1.83479944e-03  1.39949958e-02  6.85869792e-02  2.32240930e-01
  4.69069858e-01  3.60454891e-01 -1.14961023e-01 -1.69118034e-01  1.14585223e+00
  6.75800232e-02  3.23907111e-01  7.40895255e-01  1.00000000e+00  1.00000000e+00
  1.00000000e+00  1.00000000e+00  1.00000000e+00  1.83470016e-03  1.40373012e-02
  6.88426061e-02  2.32184421e-01  4.67941342e-01  3.62312032e-01 -1.19332409e-01
 -1.60854212e-01  1.14345648e+00  6.89990956e-02  3.16423980e-01  7.44308252e-01
  1.00000000e+00  1.00000000e+00  1.00000000e+00  1.00000000e+00  1.00000000e+00
  3.34945995e-02  2.34726947e-01  8.13757318e-01  1.00000000e+00  3.34945995e-02
  2.34726947e-01  8.13757318e-01  1.00000000e+00  3.34945995e-02  2.34726947e-01
  8.13757318e-01  1.00000000e+00  3.34945995e-02  2.34726947e-01  8.13757318e-01
  1.00000000e+00  1.83109981e-03  1.39500985e-02  6.84450927e-02  2.32714275e-01
  4.70192950e-01  3.58520862e-01 -1.10777504e-01 -1.48026305e-01  1.13076704e+00
  7.08742995e-02  3.39752798e-01  7.27158595e-01  1.00000000e+00  1.00000000e+00
  1.00000000e+00  1.00000000e+00  1.00000000e+00  1.83470016e-03  1.40373012e-02
  6.88426061e-02  2.32184421e-01  4.67941342e-01  3.62312032e-01 -1.19332409e-01
 -1.60854212e-01  1.14345648e+00  6.89990956e-02  3.16423980e-01  7.44308252e-01
  1.00000000e+00  1.00000000e+00  1.00000000e+00  1.00000000e+00  1.00000000e+00
  1.83470016e-03  1.40373012e-02  6.88426061e-02  2.32184421e-01  4.67941342e-01
  3.62312032e-01 -1.19332409e-01 -1.60854212e-01  1.14345648e+00  6.89990956e-02
  3.16423980e-01  7.44308252e-01  1.00000000e+00  1.00000000e+00  1.00000000e+00
  1.00000000e+00  1.00000000e+00  1.83470016e-03  1.40373012e-02  6.88426061e-02
  2.32184421e-01  4.67941342e-01  3.62312032e-01 -1.19332409e-01 -1.60854212e-01
  1.14345648e+00  6.89990956e-02  3.16423980e-01  7.44308252e-01  1.00000000e+00
  1.00000000e+00  1.00000000e+00  1.00000000e+00  1.00000000e+00  1.83470016e-03
  1.40373012e-02  6.88426061e-02  2.32184421e-01  4.67941342e-01  3.62312032e-01
 -1.19332409e-01 -1.60854212e-01  1.14345648e+00  6.89990956e-02  3.16423980e-01
  7.44308252e-01  1.00000000e+00  1.00000000e+00  1.00000000e+00  1.00000000e+00
  1.00000000e+00  1.83470016e-03  1.40373012e-02  6.88426061e-02  2.32184421e-01
  4.67941342e-01  3.62312032e-01 -1.19332409e-01 -1.60854212e-01  1.14345648e+00
  6.89990956e-02  3.16423980e-01  7.44308252e-01  1.00000000e+00  1.00000000e+00
  1.00000000e+00  1.00000000e+00  1.00000000e+00  1.83470016e-03  1.40373012e-02
  6.88426061e-02  2.32184421e-01  4.67941342e-01  3.62312032e-01 -1.19332409e-01
 -1.60854212e-01  1.14345648e+00  6.89990956e-02  3.16423980e-01  7.44308252e-01
  1.00000000e+00  1.00000000e+00  1.00000000e+00  1.00000000e+00  1.00000000e+00
  3.34945995e-02  2.34726947e-01  8.13757318e-01  1.00000000e+00  3.34945995e-02
  2.34726947e-01  8.13757318e-01  1.00000000e+00  3.34945995e-02  2.34726947e-01
  8.13757318e-01  1.00000000e+00  3.34945995e-02  2.34726947e-01  8.13757318e-01
  1.00000000e+00  3.34945995e-02  2.34726947e-01  8.13757318e-01  1.00000000e+00
  3.34945995e-02  2.34726947e-01  8.13757318e-01  1.00000000e+00
Coordinates of each shell                  R   N=         468
  5.01368972e+00  2.44554851e+00  1.98608956e+00  5.01368972e+00  2.44554851e+00
  1.98608956e+00  5.01368972e+00  2.44554851e+00  1.98608956e+00  5.01368972e+00
  2.44554851e+00  1.98608956e+00  5.01368972e+00  2.44554851e+00  1.98608956e+00
  5.01368972e+00  2.44554851e+00  1.98608956e+00  5.01368972e+00  2.44554851e+00
  1.98608956e+00  5.01368972e+00  2.44554851e+00  1.98608956e+00  2.96501551e+00
  1.80750577e+00  4.17601099e-01  2.96501551e+00  1.80750577e+00  4.17601099e-01
  2.96501551e+00  1.80750577e+00  4.17601099e-01  2.96501551e+00  1.80750577e+00
  4.17601099e-01  2.96501551e+00  1.80750577e+00  4.17601099e-01  2.96501551e+00
  1.80750577e+00  4.17601099e-01  2.96501551e+00  1.80750577e+00  4.17601099e-01
  2.96501551e+00  1.80750577e+00  4.17601099e-01  6.91411332e+00  4.01225932e+00
  1.08588799e+00  6.91411332e+00  4.01225932e+00  1.08588799e+00  6.91411332e+00
  4.01225932e+00  1.08588799e+00  6.91411332e+00  4.01225932e+00  1.08588799e+00
  6.91411332e+00  4.01225932e+00  1.08588799e+00  6.91411332e+00  4.01225932e+00
  1.08588799e+00  6.91411332e+00  4.01225932e+00  1.08588799e+00  6.91411332e+00
  4.01225932e+00  1.08588799e+00  6.78967233e+00  4.96249757e+00 -1.39728750e+00
  6.78967233e+00  4.96249757e+00 -1.39728750e+00  6.78967233e+00  4.96249757e+00
 -1.39728750e+00  6.78967233e+00  4.96249757e+00 -1.39728750e+00  6.78967233e+00
  4.96249757e+00 -1.39728750e+00  6.78967233e+00  4.96249757e+00 -1.39728750e+00
  6.78967233e+00  4.96249757e+00 -1.39728750e+00  6.78967233e+00  4.96249757e+00
 -1.39728750e+00  8.43008043e-01  2.17672510e+00 -3.68946195e+00  8.43008043e-01
  2.17672510e+00 -3.68946195e+00  8.43008043e-01  2.17672510e+00 -3.68946195e+00
  8.43008043e-01  2.17672510e+00 -3.68946195e+00  8.43008043e-01  2.17672510e+00
 -3.68946195e+00  8.43008043e-01  2.17672510e+00 -3.68946195e+00  8.43008043e-01
  2.17672510e+00 -3.68946195e+00  8.43008043e-01  2.17672510e+00 -3.68946195e+00
  2.83532488e+00  2.75626425e+00 -2.07905199e+00  2.83532488e+00  2.75626425e+00
 -2.07905199e+00  2.83532488e+00  2.75626425e+00 -2.07905199e+00  2.83532488e+00
  2.75626425e+00 -2.07905199e+00  2.83532488e+00  2.75626425e+00 -2.07905199e+00
  2.83532488e+00  2.75626425e+00 -2.07905199e+00  2.83532488e+00  2.75626425e+00
 -2.07905199e+00  2.83532488e+00  2.75626425e+00 -2.07905199e+00  4.77914085e+00
  4.34698053e+00 -2.96389731e+00  4.77914085e+00  4.34698053e+00 -2.96389731e+00
  4.77914085e+00  4.34698053e+00 -2.96389731e+00  4.77914085e+00  4.34698053e+00
 -2.96389731e+00  4.77914085e+00  4.34698053e+00 -2.96389731e+00  4.77914085e+00
  4.34698053e+00 -2.96389731e+00  4.77914085e+00  4.34698053e+00 -2.96389731e+00
  4.77914085e+00  4.34698053e+00 -2.96389731e+00 -8.93986711e-01  7.06828782e-01
 -2.81760261e+00 -8.93986711e-01  7.06828782e-01 -2.81760261e+00 -8.93986711e-01
  7.06828782e-01 -2.81760261e+00 -8.93986711e-01  7.06828782e-01 -2.81760261e+00
 -8.93986711e-01  7.06828782e-01 -2.81760261e+00 -8.93986711e-01  7.06828782e-01
 -2.81760261e+00 -8.93986711e-01  7.06828782e-01 -2.81760261e+00 -8.93986711e-01
  7.06828782e-01 -2.81760261e+00 -9.63126990e-01 -3.54666540e-01 -4.27349643e-01
 -9.63126990e-01 -3.54666540e-01 -4.27349643e-01 -9.63126990e-01 -3.54666540e-01
 -4.27349643e-01 -9.63126990e-01 -3.54666540e-01 -4.27349643e-01 -9.63126990e-01
 -3.54666540e-01 -4.27349643e-01 -9.63126990e-01 -3.54666540e-01 -4.27349643e-01
 -9.63126990e-01 -3.54666540e-01 -4.27349643e-01 -9.63126990e-01 -3.54666540e-01
 -4.27349643e-01  9.65589237e-01  1.37586953e-01  1.37246360e+00  9.65589237e-01
  1.37586953e-01  1.37246360e+00  9.65589237e-01  1.37586953e-01  1.37246360e+00
  9.65589237e-01  1.37586953e-01  1.37246360e+00  9.65589237e-01  1.37586953e-01
  1.37246360e+00  9.65589237e-01  1.37586953e-01  1.37246360e+00  9.65589237e-01
  1.37586953e-01  1.37246360e+00  9.65589237e-01  1.37586953e-01  1.37246360e+00
  4.65048088e+00  5.06280623e+00 -4.88267802e+00  4.65048088e+00  5.06280623e+00
 -4.88267802e+00  8.28280325e+00  6.18997059e+00 -2.09301580e+00  8.28280325e+00
  6.18997059e+00 -2.09301580e+00  8.49783404e+00  4.50714694e+00  2.29522292e+00
  8.49783404e+00  4.50714694e+00  2.29522292e+00  5.06212635e+00  1.68571090e+00
  3.89093682e+00  5.06212635e+00  1.68571090e+00  3.89093682e+00  8.96233450e-01
 -7.91165961e-01  3.49030248e+00  8.96233450e-01 -7.91165961e-01  3.49030248e+00
  8.96233450e-01 -7.91165961e-01  3.49030248e+00  8.96233450e-01 -7.91165961e-01
  3.49030248e+00  8.96233450e-01 -7.91165961e-01  3.49030248e+00  8.96233450e-01
 -7.91165961e-01  3.49030248e+00  8.96233450e-01 -7.91165961e-01  3.49030248e+00
  8.96233450e-01 -7.91165961e-01  3.49030248e+00 -3.00696004e+00 -2.04241722e+00
  2.02593990e-01 -3.00696004e+00 -2.04241722e+00  2.02593990e-01 -3.00696004e+00
 -2.04241722e+00  2.02593990e-01 -3.00696004e+00 -2.04241722e+00  2.02593990e-01
 -3.00696004e+00 -2.04241722e+00  2.02593990e-01 -3.00696004e+00 -2.04241722e+00
  2.02593990e-01 -3.00696004e+00 -2.04241722e+00  2.02593990e-01 -3.00696004e+00
 -2.04241722e+00  2.02593990e-01 -3.37195828e+00 -4.22200540e+00 -1.24287419e+00
 -3.37195828e+00 -4.22200540e+00 -1.24287419e+00 -3.37195828e+00 -4.22200540e+00
 -1.24287419e+00 -3.37195828e+00 -4.22200540e+00 -1.24287419e+00 -3.37195828e+00
 -4.22200540e+00 -1.24287419e+00 -3.37195828e+00 -4.22200540e+00 -1.24287419e+00
 -3.37195828e+00 -4.22200540e+00 -1.24287419e+00 -3.37195828e+00 -4.22200540e+00
 -1.24287419e+00 -5.39330109e+00 -5.83124520e+00 -6.94485321e-01 -5.39330109e+00
 -5.83124520e+00 -6.94485321e-01 -5.39330109e+00 -5.83124520e+00 -6.94485321e-01
 -5.39330109e+00 -5.83124520e+00 -6.94485321e-01 -5.39330109e+00 -5.83124520e+00
 -6.94485321e-01 -5.39330109e+00 -5.83124520e+00 -6.94485321e-01 -5.39330109e+00
 -5.83124520e+00 -6.94485321e-01 -5.39330109e+00 -5.83124520e+00 -6.94485321e-01
 -7.02015032e+00 -5.27638137e+00  1.30811771e+00 -7.02015032e+00 -5.27638137e+00
  1.30811771e+00 -7.02015032e+00 -5.27638137e+00  1.30811771e+00 -7.02015032e+00
 -5.27638137e+00  1.30811771e+00 -7.02015032e+00 -5.27638137e+00  1.30811771e+00
 -7.02015032e+00 -5.27638137e+00  1.30811771e+00 -7.02015032e+00 -5.27638137e+00
  1.30811771e+00 -7.02015032e+00 -5.27638137e+00  1.30811771e+00 -6.62584929e+00
 -3.10332685e+00  2.76080525e+00 -6.62584929e+00 -3.10332685e+00  2.76080525e+00
 -6.62584929e+00 -3.10332685e+00  2.76080525e+00 -6.62584929e+00 -3.10332685e+00
  2.76080525e+00 -6.62584929e+00 -3.10332685e+00  2.76080525e+00 -6.62584929e+00
 -3.10332685e+00  2.76080525e+00 -6.62584929e+00 -3.10332685e+00  2.76080525e+00
 -6.62584929e+00 -3.10332685e+00  2.76080525e+00 -4.62502680e+00 -1.47635899e+00
  2.21180818e+00 -4.62502680e+00 -1.47635899e+00  2.21180818e+00 -4.62502680e+00
 -1.47635899e+00  2.21180818e+00 -4.62502680e+00 -1.47635899e+00  2.21180818e+00
 -4.62502680e+00 -1.47635899e+00  2.21180818e+00 -4.62502680e+00 -1.47635899e+00
  2.21180818e+00 -4.62502680e+00 -1.47635899e+00  2.21180818e+00 -4.62502680e+00
 -1.47635899e+00  2.21180818e+00 -2.07139098e+00 -4.66506562e+00 -2.76913960e+00
 -2.07139098e+00 -4.66506562e+00 -2.76913960e+00 -5.67753136e+00 -7.52380046e+00
 -1.82188861e+00 -5.67753136e+00 -7.52380046e+00 -1.82188861e+00 -8.58424915e+00
 -6.53411643e+00  1.74239629e+00 -8.58424915e+00 -6.53411643e+00  1.74239629e+00
 -7.88132012e+00 -2.66924279e+00  4.32660988e+00 -7.88132012e+00 -2.66924279e+00
  4.32660988e+00 -2.49781858e+00  2.23738444e-01 -4.00727674e+00 -2.49781858e+00
  2.23738444e-01 -4.00727674e+00 -4.30245628e+00  2.05744945e-01  3.33759185e+00
 -4.30245628e+00  2.05744945e-01  3.33759185e+00
Total Energy                               R     -7.242910369069887e+02
Alpha Orbital Energies                     R   N=         343
 -1.91377671e+01 -1.44158994e+01 -1.43473606e+01 -1.03123633e+01 -1.02857792e+01
 -1.02537954e+01 -1.02458538e+01 -1.02168726e+01 -1.02166563e+01 -1.02139441e+01
 -1.02139285e+01 -1.02133350e+01 -1.02124693e+01 -1.02119403e+01 -1.02104287e+01
 -1.02089514e+01 -1.02060290e+01 -1.06242262e+00 -1.00182525e+00 -9.34904745e-01
 -8.70379229e-01 -8.63377329e-01 -7.86335396e-01 -7.70340741e-01 -7.67072579e-01
 -7.58645081e-01 -6.83432304e-01 -6.72075620e-01 -6.30838365e-01 -6.22462843e-01
 -6.10265770e-01 -5.68077300e-01 -5.61834362e-01 -5.37160957e-01 -5.11640282e-01
 -4.89705087e-01 -4.86158164e-01 -4.76262296e-01 -4.55288718e-01 -4.53904168e-01
 -4.50388710e-01 -4.41829006e-01 -4.40906568e-01 -4.32035408e-01 -3.92903132e-01
 -3.88426156e-01 -3.83728258e-01 -3.76931856e-01 -3.75934219e-01 -3.73519479e-01
 -3.65327672e-01 -3.09283242e-01 -2.90294769e-01 -2.79751339e-01 -2.72781756e-01
 -2.70280669e-01 -2.67155297e-01 -2.39939767e-01 -5.96140176e-02 -5.19873775e-02
 -2.93726745e-02 -2.67882940e-02 -2.36526413e-03  7.43525689e-03  9.80547899e-03
  1.61043020e-02  2.12266087e-02  2.67447945e-02  3.09226850e-02  3.84143051e-02
  4.09425363e-02  4.99445763e-02  5.09373266e-02  5.52607649e-02  6.02680549e-02
  6.39823074e-02  6.92699905e-02  7.42459048e-02  8.07976943e-02  8.65871840e-02
  9.28811860e-02  9.49909936e-02  1.02894031e-01  1.04902649e-01  1.13370046e-01