Generated by Psi4
     FORCE                           RHF                       TESTBAS
Number of atoms                            I               25
Charge                                     I                0
Multiplicity                               I                1
Number of electrons                        I               88
Number of alpha electrons                  I               44
Number of beta electrons                   I               44
Number of basis functions                  I              254
Number of independent functions            I              254
Atomic numbers                             I   N=          25
           6           6           6           7           6           6
           6           6           6           1           1           1
           1           1           6           1           1           1
           1           6           1           1           1           1
           8
Nuclear charges                            R   N=          25
  6.00000000e+00  6.00000000e+00  6.00000000e+00  7.00000000e+00  6.00000000e+00
  6.00000000e+00  6.00000000e+00  6.00000000e+00  6.00000000e+00  1.00000000e+00
  1.00000000e+00  1.00000000e+00  1.00000000e+00  1.00000000e+00  6.00000000e+00
  1.00000000e+00  1.00000000e+00  1.00000000e+00  1.00000000e+00  6.00000000e+00
  1.00000000e+00  1.00000000e+00  1.00000000e+00  1.00000000e+00  8.00000000e+00
Current cartesian coordinates              R   N=          75
  4.54363327e-01 -2.12424041e-01 -1.20944142e+00 -2.20507095e+00  3.94883194e-01
 -4.27559561e-01 -2.86030860e+00  1.55575736e+00  2.17306599e+00 -1.72676431e+00
  2.06859789e-01  4.30946477e+00  2.54304217e+00 -8.42449696e-02  4.29509309e-01
  4.96564343e+00 -6.44486119e-01 -4.58342960e-01  5.33513979e+00 -1.33567131e+00
 -2.97920586e+00  3.26597004e+00 -1.47397777e+00 -4.62257092e+00  8.48308648e-01
 -9.19700533e-01 -3.74413153e+00  2.24429485e+00  3.95077546e-01  2.39799054e+00
 -7.74058310e-01 -1.01533359e+00 -4.99532900e+00  6.56524630e+00 -5.48099738e-01
  8.27177898e-01  7.22362707e+00 -1.76967987e+00 -3.66290839e+00  3.54343595e+00
 -2.01201261e+00 -6.58558210e+00 -2.08621518e+00  4.35674047e+00  2.22683468e+00
 -4.94343672e+00  1.45842425e+00  2.23013067e+00 -3.23716631e-02  4.58250441e+00
  2.13341959e+00 -2.76121508e+00  5.24157127e+00  3.97733514e+00 -2.93722001e+00
  5.37486397e+00  6.39422727e-01 -2.74640368e+00 -2.33556993e+00  4.69905050e+00
 -1.99027852e+00  1.25599823e+00  5.90140119e+00 -2.18472150e+00 -3.56199783e+00
  3.12797350e+00 -4.82878533e+00 -2.38713222e+00  4.83617819e+00 -1.94603885e+00
 -3.13015995e+00  6.43315367e+00 -3.94813105e+00  9.83584078e-02 -1.92484174e+00
Integer atomic weights                     I   N=          25
          12          12          12          14          12          12
          12          12          12           1           1           1
           1           1          12           1           1           1
           1          12           1           1           1           1
          15
Real atomic weights                        R   N=          25
  1.20000000e+01  1.20000000e+01  1.20000000e+01  1.40030740e+01  1.20000000e+01
  1.20000000e+01  1.20000000e+01  1.20000000e+01  1.20000000e+01  1.00782503e+00
  1.00782503e+00  1.00782503e+00  1.00782503e+00  1.00782503e+00  1.20000000e+01
  1.00782503e+00  1.00782503e+00  1.00782503e+00  1.00782503e+00  1.20000000e+01
  1.00782503e+00  1.00782503e+00  1.00782503e+00  1.00782503e+00  1.59949146e+01
Number of primitive shells                 I              256
Number of contracted shells                I              122
Pure/Cartesian d shells                    I                1
Pure/Cartesian f shells                    I                1
Highest angular momentum                   I                2
Largest degree of contraction              I                6
Shell types                                I   N=         122
           0           0           1           0           1           2
           0           1           0           0           1           0
           1           2           0           1           0           0
           1           0           1           2           0           1
           0           0           1           0           1           2
           0           1           0           0           1           0
           1           2           0           1           0           0
           1           0           1           2           0           1
           0           0           1           0           1           2
           0           1           0           0           1           0
           1           2           0           1           0           0
           1           0           1           2           0           1
           0           0           0           0           0           0
           0           0           0           0           0           0
           1           0           1           2           0           1
           0           0           0           0           0           0
           0           0           0           0           1           0
           1           2           0           1           0           0
           0           0           0           0           0           0
           0           0           1           0           1           2
           0           1
Number of primitives per shell             I   N=         122
           6           3           3           1           1           1
           1           1           6           3           3           1
           1           1           1           1           6           3
           3           1           1           1           1           1
           6           3           3           1           1           1
           1           1           6           3           3           1
           1           1           1           1           6           3
           3           1           1           1           1           1
           6           3           3           1           1           1
           1           1           6           3           3           1
           1           1           1           1           6           3
           3           1           1           1           1           1
           3           1           3           1           3           1
           3           1           3           1           6           3
           3           1           1           1           1           1
           3           1           3           1           3           1
           3           1           6           3           3           1
           1           1           1           1           3           1
           3           1           3           1           3           1
           6           3           3           1           1           1
           1           1
Shell to atom map                          I   N=         122
           1           1           1           1           1           1
           1           1           2           2           2           2
           2           2           2           2           3           3
           3           3           3           3           3           3
           4           4           4           4           4           4
           4           4           5           5           5           5
           5           5           5           5           6           6
           6           6           6           6           6           6
           7           7           7           7           7           7
           7           7           8           8           8           8
           8           8           8           8           9           9
           9           9           9           9           9           9
          10          10          11          11          12          12
          13          13          14          14          15          15
          15          15          15          15          15          15
          16          16          17          17          18          18
          19          19          20          20          20          20
          20          20          20          20          21          21
          22          22          23          23          24          24
          25          25          25          25          25          25
          25          25
Primitive exponents                        R   N=         256
  3.04752490e+03  4.57369510e+02  1.03948690e+02  2.92101550e+01  9.28666300e+00
  3.16392700e+00  7.86827240e+00  1.88128850e+00  5.44249300e-01  7.86827240e+00
  1.88128850e+00  5.44249300e-01  1.68714400e-01  1.68714400e-01  8.00000000e-01
  4.38000000e-02  4.38000000e-02  3.04752490e+03  4.57369510e+02  1.03948690e+02
  2.92101550e+01  9.28666300e+00  3.16392700e+00  7.86827240e+00  1.88128850e+00
  5.44249300e-01  7.86827240e+00  1.88128850e+00  5.44249300e-01  1.68714400e-01
  1.68714400e-01  8.00000000e-01  4.38000000e-02  4.38000000e-02  3.04752490e+03
  4.57369510e+02  1.03948690e+02  2.92101550e+01  9.28666300e+00  3.16392700e+00
  7.86827240e+00  1.88128850e+00  5.44249300e-01  7.86827240e+00  1.88128850e+00
  5.44249300e-01  1.68714400e-01  1.68714400e-01  8.00000000e-01  4.38000000e-02
  4.38000000e-02  4.17351100e+03  6.27457900e+02  1.42902100e+02  4.02343300e+01
  1.28202100e+01  4.39043700e+00  1.16263580e+01  2.71628000e+00  7.72218000e-01
  1.16263580e+01  2.71628000e+00  7.72218000e-01  2.12031300e-01  2.12031300e-01
  8.00000000e-01  6.39000000e-02  6.39000000e-02  3.04752490e+03  4.57369510e+02
  1.03948690e+02  2.92101550e+01  9.28666300e+00  3.16392700e+00  7.86827240e+00
  1.88128850e+00  5.44249300e-01  7.86827240e+00  1.88128850e+00  5.44249300e-01
  1.68714400e-01  1.68714400e-01  8.00000000e-01  4.38000000e-02  4.38000000e-02
  3.04752490e+03  4.57369510e+02  1.03948690e+02  2.92101550e+01  9.28666300e+00
  3.16392700e+00  7.86827240e+00  1.88128850e+00  5.44249300e-01  7.86827240e+00
  1.88128850e+00  5.44249300e-01  1.68714400e-01  1.68714400e-01  8.00000000e-01
  4.38000000e-02  4.38000000e-02  3.04752490e+03  4.57369510e+02  1.03948690e+02
  2.92101550e+01  9.28666300e+00  3.16392700e+00  7.86827240e+00  1.88128850e+00
  5.44249300e-01  7.86827240e+00  1.88128850e+00  5.44249300e-01  1.68714400e-01
  1.68714400e-01  8.00000000e-01  4.38000000e-02  4.38000000e-02  3.04752490e+03
  4.57369510e+02  1.03948690e+02  2.92101550e+01  9.28666300e+00  3.16392700e+00
  7.86827240e+00  1.88128850e+00  5.44249300e-01  7.86827240e+00  1.88128850e+00
  5.44249300e-01  1.68714400e-01  1.68714400e-01  8.00000000e-01  4.38000000e-02
  4.38000000e-02  3.04752490e+03  4.57369510e+02  1.03948690e+02  2.92101550e+01
  9.28666300e+00  3.16392700e+00  7.86827240e+00  1.88128850e+00  5.44249300e-01
  7.86827240e+00  1.88128850e+00  5.44249300e-01  1.68714400e-01  1.68714400e-01
  8.00000000e-01  4.38000000e-02  4.38000000e-02  1.87311370e+01  2.82539370e+00
  6.40121700e-01  1.61277800e-01  1.87311370e+01  2.82539370e+00  6.40121700e-01
  1.61277800e-01  1.87311370e+01  2.82539370e+00  6.40121700e-01  1.61277800e-01
  1.87311370e+01  2.82539370e+00  6.40121700e-01  1.61277800e-01  1.87311370e+01
  2.82539370e+00  6.40121700e-01  1.61277800e-01  3.04752490e+03  4.57369510e+02
  1.03948690e+02  2.92101550e+01  9.28666300e+00  3.16392700e+00  7.86827240e+00
  1.88128850e+00  5.44249300e-01  7.86827240e+00  1.88128850e+00  5.44249300e-01
  1.68714400e-01  1.68714400e-01  8.00000000e-01  4.38000000e-02  4.38000000e-02
  1.87311370e+01  2.82539370e+00  6.40121700e-01  1.61277800e-01  1.87311370e+01
  2.82539370e+00  6.40121700e-01  1.61277800e-01  1.87311370e+01  2.82539370e+00
  6.40121700e-01  1.61277800e-01  1.87311370e+01  2.82539370e+00  6.40121700e-01
  1.61277800e-01  3.04752490e+03  4.57369510e+02  1.03948690e+02  2.92101550e+01
  9.28666300e+00  3.16392700e+00  7.86827240e+00  1.88128850e+00  5.44249300e-01
  7.86827240e+00  1.88128850e+00  5.44249300e-01  1.68714400e-01  1.68714400e-01
  8.00000000e-01  4.38000000e-02  4.38000000e-02  1.87311370e+01  2.82539370e+00
  6.40121700e-01  1.61277800e-01  1.87311370e+01  2.82539370e+00  6.40121700e-01
  1.61277800e-01  1.87311370e+01  2.82539370e+00  6.40121700e-01  1.61277800e-01
  1.87311370e+01  2.82539370e+00  6.40121700e-01  1.61277800e-01  5.48467170e+03
  8.25234950e+02  1.88046960e+02  5.29645000e+01  1.68975700e+01  5.79963530e+00
  1.55396160e+01  3.59993360e+00  1.01376180e+00  1.55396160e+01  3.59993360e+00
  1.01376180e+00  2.70005800e-01  2.70005800e-01  8.00000000e-01  8.45000000e-02
  8.45000000e-02
Contraction coefficients                   R   N=         256
  1.83470016e-03  1.40373012e-02  6.88426061e-02  2.32184421e-01  4.67941342e-01
  3.62312032e-01 -1.19332409e-01 -1.60854212e-01  1.14345648e+00  6.89990956e-02
  3.16423980e-01  7.44308252e-01  1.00000000e+00  1.00000000e+00  1.00000000e+00
  1.00000000e+00  1.00000000e+00  1.83470016e-03  1.40373012e-02  6.88426061e-02
  2.32184421e-01  4.67941342e-01  3.62312032e-01 -1.19332409e-01 -1.60854212e-01
  1.14345648e+00  6.89990956e-02  3.16423980e-01  7.44308252e-01  1.00000000e+00
  1.00000000e+00  1.00000000e+00  1.00000000e+00  1.00000000e+00  1.83470016e-03
  1.40373012e-02  6.88426061e-02  2.32184421e-01  4.67941342e-01  3.62312032e-01
 -1.19332409e-01 -1.60854212e-01  1.14345648e+00  6.89990956e-02  3.16423980e-01
  7.44308252e-01  1.00000000e+00  1.00000000e+00  1.00000000e+00  1.00000000e+00
  1.00000000e+00  1.83479944e-03  1.39949958e-02  6.85869792e-02  2.32240930e-01
  4.69069858e-01  3.60454891e-01 -1.14961023e-01 -1.69118034e-01  1.14585223e+00
  6.75800232e-02  3.23907111e-01  7.40895255e-01  1.00000000e+00  1.00000000e+00
  1.00000000e+00  1.00000000e+00  1.00000000e+00  1.83470016e-03  1.40373012e-02
  6.88426061e-02  2.32184421e-01  4.67941342e-01  3.62312032e-01 -1.19332409e-01
 -1.60854212e-01  1.14345648e+00  6.89990956e-02  3.16423980e-01  7.44308252e-01
  1.00000000e+00  1.00000000e+00  1.00000000e+00  1.00000000e+00  1.00000000e+00
  1.83470016e-03  1.40373012e-02  6.88426061e-02  2.32184421e-01  4.67941342e-01
  3.62312032e-01 -1.19332409e-01 -1.60854212e-01  1.14345648e+00  6.89990956e-02
  3.16423980e-01  7.44308252e-01  1.00000000e+00  1.00000000e+00  1.00000000e+00
  1.00000000e+00  1.00000000e+00  1.83470016e-03  1.40373012e-02  6.88426061e-02
  2.32184421e-01  4.67941342e-01  3.62312032e-01 -1.19332409e-01 -1.60854212e-01
  1.14345648e+00  6.89990956e-02  3.16423980e-01  7.44308252e-01  1.00000000e+00
  1.00000000e+00  1.00000000e+00  1.00000000e+00  1.00000000e+00  1.83470016e-03
  1.40373012e-02  6.88426061e-02  2.32184421e-01  4.67941342e-01  3.62312032e-01
 -1.19332409e-01 -1.60854212e-01  1.14345648e+00  6.89990956e-02  3.16423980e-01
  7.44308252e-01  1.00000000e+00  1.00000000e+00  1.00000000e+00  1.00000000e+00
  1.00000000e+00  1.83470016e-03  1.40373012e-02  6.88426061e-02  2.32184421e-01
  4.67941342e-01  3.62312032e-01 -1.19332409e-01 -1.60854212e-01  1.14345648e+00
  6.89990956e-02  3.16423980e-01  7.44308252e-01  1.00000000e+00  1.00000000e+00
  1.00000000e+00  1.00000000e+00  1.00000000e+00  3.34945995e-02  2.34726947e-01
  8.13757318e-01  1.00000000e+00  3.34945995e-02  2.34726947e-01  8.13757318e-01
  1.00000000e+00  3.34945995e-02  2.34726947e-01  8.13757318e-01  1.00000000e+00
  3.34945995e-02  2.34726947e-01  8.13757318e-01  1.00000000e+00  3.34945995e-02
  2.34726947e-01  8.13757318e-01  1.00000000e+00  1.83470016e-03  1.40373012e-02
  6.88426061e-02  2.32184421e-01  4.67941342e-01  3.62312032e-01 -1.19332409e-01
 -1.60854212e-01  1.14345648e+00  6.89990956e-02  3.16423980e-01  7.44308252e-01
  1.00000000e+00  1.00000000e+00  1.00000000e+00  1.00000000e+00  1.00000000e+00
  3.34945995e-02  2.34726947e-01  8.13757318e-01  1.00000000e+00  3.34945995e-02
  2.34726947e-01  8.13757318e-01  1.00000000e+00  3.34945995e-02  2.34726947e-01
  8.13757318e-01  1.00000000e+00  3.34945995e-02  2.34726947e-01  8.13757318e-01
  1.00000000e+00  1.83470016e-03  1.40373012e-02  6.88426061e-02  2.32184421e-01
  4.67941342e-01  3.62312032e-01 -1.19332409e-01 -1.60854212e-01  1.14345648e+00
  6.89990956e-02  3.16423980e-01  7.44308252e-01  1.00000000e+00  1.00000000e+00
  1.00000000e+00  1.00000000e+00  1.00000000e+00  3.34945995e-02  2.34726947e-01
  8.13757318e-01  1.00000000e+00  3.34945995e-02  2.34726947e-01  8.13757318e-01
  1.00000000e+00  3.34945995e-02  2.34726947e-01  8.13757318e-01  1.00000000e+00
  3.34945995e-02  2.34726947e-01  8.13757318e-01  1.00000000e+00  1.83109981e-03
  1.39500985e-02  6.84450927e-02  2.32714275e-01  4.70192950e-01  3.58520862e-01
 -1.10777504e-01 -1.48026305e-01  1.13076704e+00  7.08742995e-02  3.39752798e-01
  7.27158595e-01  1.00000000e+00  1.00000000e+00  1.00000000e+00  1.00000000e+00
  1.00000000e+00
Coordinates of each shell                  R   N=         366
  4.54363327e-01 -2.12424041e-01 -1.20944142e+00  4.54363327e-01 -2.12424041e-01
 -1.20944142e+00  4.54363327e-01 -2.12424041e-01 -1.20944142e+00  4.54363327e-01
 -2.12424041e-01 -1.20944142e+00  4.54363327e-01 -2.12424041e-01 -1.20944142e+00
  4.54363327e-01 -2.12424041e-01 -1.20944142e+00  4.54363327e-01 -2.12424041e-01
 -1.20944142e+00  4.54363327e-01 -2.12424041e-01 -1.20944142e+00 -2.20507095e+00
  3.94883194e-01 -4.27559561e-01 -2.20507095e+00  3.94883194e-01 -4.27559561e-01
 -2.20507095e+00  3.94883194e-01 -4.27559561e-01 -2.20507095e+00  3.94883194e-01
 -4.27559561e-01 -2.20507095e+00  3.94883194e-01 -4.27559561e-01 -2.20507095e+00
  3.94883194e-01 -4.27559561e-01 -2.20507095e+00  3.94883194e-01 -4.27559561e-01
 -2.20507095e+00  3.94883194e-01 -4.27559561e-01 -2.86030860e+00  1.55575736e+00
  2.17306599e+00 -2.86030860e+00  1.55575736e+00  2.17306599e+00 -2.86030860e+00
  1.55575736e+00  2.17306599e+00 -2.86030860e+00  1.55575736e+00  2.17306599e+00
 -2.86030860e+00  1.55575736e+00  2.17306599e+00 -2.86030860e+00  1.55575736e+00
  2.17306599e+00 -2.86030860e+00  1.55575736e+00  2.17306599e+00 -2.86030860e+00
  1.55575736e+00  2.17306599e+00 -1.72676431e+00  2.06859789e-01  4.30946477e+00
 -1.72676431e+00  2.06859789e-01  4.30946477e+00 -1.72676431e+00  2.06859789e-01
  4.30946477e+00 -1.72676431e+00  2.06859789e-01  4.30946477e+00 -1.72676431e+00
  2.06859789e-01  4.30946477e+00 -1.72676431e+00  2.06859789e-01  4.30946477e+00
 -1.72676431e+00  2.06859789e-01  4.30946477e+00 -1.72676431e+00  2.06859789e-01
  4.30946477e+00  2.54304217e+00 -8.42449696e-02  4.29509309e-01  2.54304217e+00
 -8.42449696e-02  4.29509309e-01  2.54304217e+00 -8.42449696e-02  4.29509309e-01
  2.54304217e+00 -8.42449696e-02  4.29509309e-01  2.54304217e+00 -8.42449696e-02
  4.29509309e-01  2.54304217e+00 -8.42449696e-02  4.29509309e-01  2.54304217e+00
 -8.42449696e-02  4.29509309e-01  2.54304217e+00 -8.42449696e-02  4.29509309e-01
  4.96564343e+00 -6.44486119e-01 -4.58342960e-01  4.96564343e+00 -6.44486119e-01
 -4.58342960e-01  4.96564343e+00 -6.44486119e-01 -4.58342960e-01  4.96564343e+00
 -6.44486119e-01 -4.58342960e-01  4.96564343e+00 -6.44486119e-01 -4.58342960e-01
  4.96564343e+00 -6.44486119e-01 -4.58342960e-01  4.96564343e+00 -6.44486119e-01
 -4.58342960e-01  4.96564343e+00 -6.44486119e-01 -4.58342960e-01  5.33513979e+00
 -1.33567131e+00 -2.97920586e+00  5.33513979e+00 -1.33567131e+00 -2.97920586e+00
  5.33513979e+00 -1.33567131e+00 -2.97920586e+00  5.33513979e+00 -1.33567131e+00
 -2.97920586e+00  5.33513979e+00 -1.33567131e+00 -2.97920586e+00  5.33513979e+00
 -1.33567131e+00 -2.97920586e+00  5.33513979e+00 -1.33567131e+00 -2.97920586e+00
  5.33513979e+00 -1.33567131e+00 -2.97920586e+00  3.26597004e+00 -1.47397777e+00
 -4.62257092e+00  3.26597004e+00 -1.47397777e+00 -4.62257092e+00  3.26597004e+00
 -1.47397777e+00 -4.62257092e+00  3.26597004e+00 -1.47397777e+00 -4.62257092e+00
  3.26597004e+00 -1.47397777e+00 -4.62257092e+00  3.26597004e+00 -1.47397777e+00
 -4.62257092e+00  3.26597004e+00 -1.47397777e+00 -4.62257092e+00  3.26597004e+00
 -1.47397777e+00 -4.62257092e+00  8.48308648e-01 -9.19700533e-01 -3.74413153e+00
  8.48308648e-01 -9.19700533e-01 -3.74413153e+00  8.48308648e-01 -9.19700533e-01
 -3.74413153e+00  8.48308648e-01 -9.19700533e-01 -3.74413153e+00  8.48308648e-01
 -9.19700533e-01 -3.74413153e+00  8.48308648e-01 -9.19700533e-01 -3.74413153e+00
  8.48308648e-01 -9.19700533e-01 -3.74413153e+00  8.48308648e-01 -9.19700533e-01
 -3.74413153e+00  2.24429485e+00  3.95077546e-01  2.39799054e+00  2.24429485e+00
  3.95077546e-01  2.39799054e+00 -7.74058310e-01 -1.01533359e+00 -4.99532900e+00
 -7.74058310e-01 -1.01533359e+00 -4.99532900e+00  6.56524630e+00 -5.48099738e-01
  8.27177898e-01  6.56524630e+00 -5.48099738e-01  8.27177898e-01  7.22362707e+00
 -1.76967987e+00 -3.66290839e+00  7.22362707e+00 -1.76967987e+00 -3.66290839e+00
  3.54343595e+00 -2.01201261e+00 -6.58558210e+00  3.54343595e+00 -2.01201261e+00
 -6.58558210e+00 -2.08621518e+00  4.35674047e+00  2.22683468e+00 -2.08621518e+00
  4.35674047e+00  2.22683468e+00 -2.08621518e+00  4.35674047e+00  2.22683468e+00
 -2.08621518e+00  4.35674047e+00  2.22683468e+00 -2.08621518e+00  4.35674047e+00
  2.22683468e+00 -2.08621518e+00  4.35674047e+00  2.22683468e+00 -2.08621518e+00
  4.35674047e+00  2.22683468e+00 -2.08621518e+00  4.35674047e+00  2.22683468e+00
 -4.94343672e+00  1.45842425e+00  2.23013067e+00 -4.94343672e+00  1.45842425e+00
  2.23013067e+00 -3.23716631e-02  4.58250441e+00  2.13341959e+00 -3.23716631e-02
  4.58250441e+00  2.13341959e+00 -2.76121508e+00  5.24157127e+00  3.97733514e+00
 -2.76121508e+00  5.24157127e+00  3.97733514e+00 -2.93722001e+00  5.37486397e+00
  6.39422727e-01 -2.93722001e+00  5.37486397e+00  6.39422727e-01 -2.74640368e+00
 -2.33556993e+00  4.69905050e+00 -2.74640368e+00 -2.33556993e+00  4.69905050e+00
 -2.74640368e+00 -2.33556993e+00  4.69905050e+00 -2.74640368e+00 -2.33556993e+00
  4.69905050e+00 -2.74640368e+00 -2.33556993e+00  4.69905050e+00 -2.74640368e+00
 -2.33556993e+00  4.69905050e+00 -2.74640368e+00 -2.33556993e+00  4.69905050e+00
 -2.74640368e+00 -2.33556993e+00  4.69905050e+00 -1.99027852e+00  1.25599823e+00
  5.90140119e+00 -1.99027852e+00  1.25599823e+00  5.90140119e+00 -2.18472150e+00
 -3.56199783e+00  3.12797350e+00 -2.18472150e+00 -3.56199783e+00  3.12797350e+00
 -4.82878533e+00 -2.38713222e+00  4.83617819e+00 -4.82878533e+00 -2.38713222e+00
  4.83617819e+00 -1.94603885e+00 -3.13015995e+00  6.43315367e+00 -1.94603885e+00
 -3.13015995e+00  6.43315367e+00 -3.94813105e+00  9.83584078e-02 -1.92484174e+00
 -3.94813105e+00  9.83584078e-02 -1.92484174e+00 -3.94813105e+00  9.83584078e-02
 -1.92484174e+00 -3.94813105e+00  9.83584078e-02 -1.92484174e+00 -3.94813105e+00
  9.83584078e-02 -1.92484174e+00 -3.94813105e+00  9.83584078e-02 -1.92484174e+00
 -3.94813105e+00  9.83584078e-02 -1.92484174e+00 -3.94813105e+00  9.83584078e-02
 -1.92484174e+00
Total Energy                               R     -5.188774965940486e+02
Alpha Orbital Energies                     R   N=         254
 -1.91469837e+01 -1.43393621e+01 -1.02809491e+01 -1.02304877e+01 -1.02129161e+01
 -1.02081945e+01 -1.02076703e+01 -1.02028679e+01 -1.02028274e+01 -1.02015770e+01
 -1.02015016e+01 -1.01945361e+01 -1.04470136e+00 -9.19796858e-01 -8.64906512e-01
 -7.77596154e-01 -7.60417725e-01 -7.54866815e-01 -6.72015828e-01 -6.61522966e-01
 -6.23534208e-01 -6.10884441e-01 -5.56050907e-01 -5.11739387e-01 -4.98599924e-01
 -4.81157611e-01 -4.71140094e-01 -4.58145423e-01 -4.44482369e-01 -4.34623274e-01
 -4.28284394e-01 -4.25145513e-01 -4.07838840e-01 -3.96293317e-01 -3.85145145e-01
 -3.77487071e-01 -3.69989026e-01 -3.63686374e-01 -3.50949779e-01 -3.49763519e-01
 -2.64831603e-01 -2.62127536e-01 -2.58177590e-01 -2.38258274e-01 -6.69319135e-02
 -1.79589525e-02 -2.83723114e-03  8.49951408e-03  1.48747678e-02  2.34315628e-02
  2.62796212e-02  3.19908156e-02  3.69257645e-02  4.52914194e-02  5.42232563e-02
  5.82313507e-02  6.24532341e-02  6.49426081e-02  6.97649495e-02  7.82363823e-02
  8.93470468e-02  9.33690146e-02  9.50331683e-02  1.00940321e-01  1.09396568e-01
  1.15739406e-01  1.22779765e-01  1.27675798e-01  1.34816749e-01  1.37141541e-01
  1.45724944e-01  1.46937206e-01  1.50603985e-01  1.59192106e-01  1.67776293e-01
  1.74316901e-01  1.76997016e-01  1.86163732e-01  1.89303838e-01  1.93500091e-01
  1.97173634e-01  1.99695716e-01  2.02611013e-01  2.09968440e-01  2.12799231e-01
  2.22730362e-01  2.24051747e-01  2.30317508e-01  2.33455588e-01  2.37541141e-01
  2.45766791e-01  2.49557044e-01  2.55403299e-01  2.56487353e-01  2.61692028e-01
  2.67522191e-01  2.73837453e-01  2.75615777e-01  2.85951191e-01  2.88912946e-01
  2.97405989e-01  3.02945100e-01  3.08651973e-01  3.16948842e-01  3.27628247e-01
  3.34644443e-01  3.38771884e-01  3.48360689e-01  3.50695080e-01  3.59198033e-01
  3.69075117e-01  3.75569565e-01  3.84881440e-01  4.09604674e-01  4.28141597e-01
  4.40401887e-01  4.55076292e-01  4.62997898e-01  5.10561574e-01  5.87926375e-01
  6.09028656e-01  6.50076223e-01  6.69382579e-01  6.81871935e-01  6.85159750e-01
  6.90245144e-01  6.93709850e-01  7.12406910e-01  7.20881054e-01  7.27204136e-01
  7.32875840e-01  7.38683757e-01  7.47819845e-01  7.59643086e-01  7.68077696e-01
  7.71238698e-01  8.04863211e-01  8.13782901e-01  8.23763328e-01  8.29193700e-01
  8.39307708e-01  8.55613083e-01  8.78611576e-01  8.93519088e-01  9.04139909e-01
  9.40640840e-01  9.43686838e-01  9.55511413e-01  9.61454090e-01  9.80250879e-01
  9.85299257e-01  1.00548997e+00  1.02095308e+00  1.02690239e+00  1.03859517e+00
  1.04297812e+00  1.07390808e+00  1.08183513e+00  1.09357875e+00  1.10799592e+00
  1.12084480e+00  1.13732935e+00  1.15029551e+00  1.16159530e+00  1.17296007e+00
  1.18683313e+00  1.19411796e+00  1.23201559e+00  1.25904697e+00  1.28074267e+00
  1.29563492e+00  1.31380539e+00  1.34530556e+00  1.35930583e+00  1.37245926e+00
  1.40076947e+00  1.41553747e+00  1.43087978e+00  1.44687978e+00  1.46304794e+00
  1.47189089e+00  1.47780311e+00  1.48981119e+00  1.49832698e+00  1.51203264e+00
  1.54263779e+00  1.59476371e+00  1.65417054e+00  1.68836888e+00  1.71043684e+00
  1.74339677e+00  1.78900611e+00  1.82273782e+00  1.85044101e+00  1.85696587e+00
  1.88389363e+00  1.91381036e+00  1.93447166e+00  1.94987721e+00  1.96068558e+00
  1.97294792e+00  2.00319575e+00  2.01242694e+00  2.01371552e+00  2.04778928e+00
  2.06889797e+00  2.09611670e+00  2.12354117e+00  2.12570612e+00  2.14462467e+00
  2.14494386e+00  2.16399361e+00  2.18034847e+00  2.22652537e+00  2.26096948e+00
  2.28016161e+00  2.30179936e+00  2.30863055e+00  2.32193242e+00  2.35926580e+00
  2.37698118e+00  2.40678941e+00  2.41923691e+00  2.44769496e+00  2.52157000e+00
  2.57155915e+00  2.58619611e+00  2.59667093e+00  2.63210269e+00  2.64367530e+00
  2.67153321e+00  2.71122858e+00  2.74687226e+00  2.76785857e+00  2.78685880e+00
  2.81559944e+00  2.85415907e+00  2.91304452e+00  3.00870192e+00  3.12361889e+00
  3.23953107e+00  3.40698219e+00  4.12002090e+00  4.22967329e+00  4.24732712e+00
  4.25963507e+00  4.28429354e+00  4.32702041e+00  4.35647925e+00  4.41009775e+00
  4.42989593e+00  4.55124547e+00  4.66094147e+00  4.76640433e+00
Alpha MO coefficients                      R   N=       64516
 -5.73680592e-06 -1.12702362e-04 -1.68056027e-05 -7.81804000e-06 -1.63655963e-05
  5.11193975e-04  1.06931522e-04  6.60439796e-05  1.39994763e-04  1.13039009e-04
 -9.81796332e-06 -8.06123113e-07 -3.09802679e-07  6.21496918e-05 -5.62852233e-06
  1.60032657e-02 -1.74936403e-04  1.77329422e-03  7.04502599e-03  1.46518979e-05
 -3.84612701e-04  2.19064264e-04  2.88022716e-05  1.74601941e-04  1.61002955e-04
 -9.14196917e-04 -2.38991811e-05 -3.68917174e-04  3.00816808e-04  1.68182209e-04
  2.66363968e-04  3.96212858e-05  1.69735325e-04  1.32576514e-05 -1.47943604e-02
  9.18708217e-04 -3.35693220e-04 -1.42182144e-03 -3.42203340e-06 -9.50653652e-05
 -1.18682689e-05 -2.46326973e-05 -2.77206796e-05  9.98333041e-05  2.92777413e-04
  7.38308326e-05  2.48612741e-04  2.52757059e-05 -1.34842200e-06  7.15188128e-05
  1.13784653e-05  3.88967142e-05  2.29374337e-05 -8.71289802e-03 -2.56310049e-03
 -2.07274935e-03 -1.41411741e-03 -3.36299923e-06 -1.33771815e-05  4.54703407e-06
  1.95139465e-05  9.54203620e-06  1.39504905e-06 -1.56337659e-06 -2.08583028e-04
 -4.86098198e-05 -7.43814069e-06 -2.42033062e-05  5.51612100e-06  1.08294331e-05
 -7.34857764e-06  1.07822037e-05  2.41609221e-03  9.57817297e-06  1.05712208e-03
 -2.69783292e-04 -1.28485109e-05 -3.04129386e-05  5.06092903e-05 -5.93763129e-06
  1.21620478e-05 -2.73964406e-04 -3.67032863e-04  1.20979422e-04  2.88758311e-04
 -4.41091271e-05 -3.00596453e-05 -4.05166855e-05 -1.65909545e-07 -1.42361274e-05
  1.49189895e-06 -1.14896534e-02  3.90556154e-03 -1.58195085e-04  1.60191968e-03
 -9.50430105e-06 -5.16442605e-05 -1.18654428e-06  8.35511392e-09 -1.69253565e-06
  6.50530113e-04 -3.35360244e-04  3.43842423e-05 -5.17823583e-05  7.33266581e-06
 -1.62476593e-05 -6.02269583e-06 -5.23637048e-06 -4.62369493e-06  4.69332291e-06
 -2.53746022e-03 -6.92794865e-06 -1.20756533e-04 -5.54158452e-04  1.68226539e-06
  1.41364993e-05  2.36465535e-06  2.55614146e-07  1.16227780e-06 -3.18828387e-04
  2.55877497e-04 -4.90051385e-05 -5.65289502e-05 -5.09919448e-06  1.07376612e-06
 -2.60720734e-06  1.09670352e-06  2.22863893e-07 -1.57326169e-06 -2.74831905e-03
  3.87081694e-04  3.16692370e-04  1.42049790e-03 -6.31778132e-06 -3.30408481e-05
 -1.60436749e-07 -1.80296817e-06 -9.47940773e-06  3.21370927e-04 -5.35288372e-06
  8.27883059e-05  3.29050750e-04  7.04241176e-06 -1.43133479e-05 -1.63256794e-06
 -4.63203419e-06 -5.84139323e-06  4.36863755e-06 -7.04311152e-03  4.05393547e-03
 -5.47439505e-04  1.66018639e-04  1.83840499e-06  2.98050248e-05  2.54478839e-05
 -7.74771459e-07  1.50377337e-05 -1.92610634e-04 -1.70151556e-04 -3.73756396e-05
 -2.35812626e-04 -3.04379524e-05 -1.44118387e-05  1.47596467e-05  6.60143788e-06