Generated by Psi4
     FORCE                           RHF                       TESTBAS
Number of atoms                            I               13
Charge                                     I                0
Multiplicity                               I                1
Number of electrons                        I               40
Number of alpha electrons                  I               20
Number of beta electrons                   I               20
Number of basis functions                  I              111
Number of independent functions            I              111
Atomic numbers                             I   N=          13
           6           6           6           6           1           1
           1           1           1           1           1           1
           8
Nuclear charges                            R   N=          13
  6.00000000e+00  6.00000000e+00  6.00000000e+00  6.00000000e+00  1.00000000e+00
  1.00000000e+00  1.00000000e+00  1.00000000e+00  1.00000000e+00  1.00000000e+00
  1.00000000e+00  1.00000000e+00  8.00000000e+00
Current cartesian coordinates              R   N=          39
 -2.74790636e+00 -2.72429730e+00  2.27693165e-01 -2.03305535e+00  7.18042178e-02
  1.21052100e-01  8.00999429e-01  5.62349378e-01 -6.10254029e-02  1.62547172e+00
  3.31141080e+00 -1.76065951e-01  9.77993899e-01  4.33384357e+00  1.50867527e+00
  7.76486131e-01  4.25565548e+00 -1.81626562e+00  3.68254263e+00  3.42696118e+00
 -3.03470825e-01 -2.74099420e+00  1.08566917e+00  1.79376632e+00 -2.93993345e+00
  1.01106296e+00 -1.49825488e+00 -1.88880239e+00 -3.64942357e+00  1.86626129e+00
 -2.08956953e+00 -3.72461755e+00 -1.45895416e+00 -4.80324957e+00 -2.94082206e+00
  3.56637767e-01  2.33511958e+00 -1.15557081e+00 -1.12020028e-01
Integer atomic weights                     I   N=          13
          12          12          12          12           1           1
           1           1           1           1           1           1
          15
Real atomic weights                        R   N=          13
  1.20000000e+01  1.20000000e+01  1.20000000e+01  1.20000000e+01  1.00782503e+00
  1.00782503e+00  1.00782503e+00  1.00782503e+00  1.00782503e+00  1.00782503e+00
  1.00782503e+00  1.00782503e+00  1.59949146e+01
Number of primitive shells                 I              117
Number of contracted shells                I               56
Pure/Cartesian d shells                    I                1
Pure/Cartesian f shells                    I                1
Highest angular momentum                   I                2
Largest degree of contraction              I                6
Shell types                                I   N=          56
           0           0           1           0           1           2
           0           1           0           0           1           0
           1           2           0           1           0           0
           1           0           1           2           0           1
           0           0           1           0           1           2
           0           1           0           0           0           0
           0           0           0           0           0           0
           0           0           0           0           0           0
           0           0           1           0           1           2
           0           1
Number of primitives per shell             I   N=          56
           6           3           3           1           1           1
           1           1           6           3           3           1
           1           1           1           1           6           3
           3           1           1           1           1           1
           6           3           3           1           1           1
           1           1           3           1           3           1
           3           1           3           1           3           1
           3           1           3           1           3           1
           6           3           3           1           1           1
           1           1
Shell to atom map                          I   N=          56
           1           1           1           1           1           1
           1           1           2           2           2           2
           2           2           2           2           3           3
           3           3           3           3           3           3
           4           4           4           4           4           4
           4           4           5           5           6           6
           7           7           8           8           9           9
          10          10          11          11          12          12
          13          13          13          13          13          13
          13          13
Primitive exponents                        R   N=         117
  3.04752490e+03  4.57369510e+02  1.03948690e+02  2.92101550e+01  9.28666300e+00
  3.16392700e+00  7.86827240e+00  1.88128850e+00  5.44249300e-01  7.86827240e+00
  1.88128850e+00  5.44249300e-01  1.68714400e-01  1.68714400e-01  8.00000000e-01
  4.38000000e-02  4.38000000e-02  3.04752490e+03  4.57369510e+02  1.03948690e+02
  2.92101550e+01  9.28666300e+00  3.16392700e+00  7.86827240e+00  1.88128850e+00
  5.44249300e-01  7.86827240e+00  1.88128850e+00  5.44249300e-01  1.68714400e-01
  1.68714400e-01  8.00000000e-01  4.38000000e-02  4.38000000e-02  3.04752490e+03
  4.57369510e+02  1.03948690e+02  2.92101550e+01  9.28666300e+00  3.16392700e+00
  7.86827240e+00  1.88128850e+00  5.44249300e-01  7.86827240e+00  1.88128850e+00
  5.44249300e-01  1.68714400e-01  1.68714400e-01  8.00000000e-01  4.38000000e-02
  4.38000000e-02  3.04752490e+03  4.57369510e+02  1.03948690e+02  2.92101550e+01
  9.28666300e+00  3.16392700e+00  7.86827240e+00  1.88128850e+00  5.44249300e-01
  7.86827240e+00  1.88128850e+00  5.44249300e-01  1.68714400e-01  1.68714400e-01
  8.00000000e-01  4.38000000e-02  4.38000000e-02  1.87311370e+01  2.82539370e+00
  6.40121700e-01  1.61277800e-01  1.87311370e+01  2.82539370e+00  6.40121700e-01
  1.61277800e-01  1.87311370e+01  2.82539370e+00  6.40121700e-01  1.61277800e-01
  1.87311370e+01  2.82539370e+00  6.40121700e-01  1.61277800e-01  1.87311370e+01
  2.82539370e+00  6.40121700e-01  1.61277800e-01  1.87311370e+01  2.82539370e+00
  6.40121700e-01  1.61277800e-01  1.87311370e+01  2.82539370e+00  6.40121700e-01
  1.61277800e-01  1.87311370e+01  2.82539370e+00  6.40121700e-01  1.61277800e-01
  5.48467170e+03  8.25234950e+02  1.88046960e+02  5.29645000e+01  1.68975700e+01
  5.79963530e+00  1.55396160e+01  3.59993360e+00  1.01376180e+00  1.55396160e+01
  3.59993360e+00  1.01376180e+00  2.70005800e-01  2.70005800e-01  8.00000000e-01
  8.45000000e-02  8.45000000e-02
Contraction coefficients                   R   N=         117
  1.83470016e-03  1.40373012e-02  6.88426061e-02  2.32184421e-01  4.67941342e-01
  3.62312032e-01 -1.19332409e-01 -1.60854212e-01  1.14345648e+00  6.89990956e-02
  3.16423980e-01  7.44308252e-01  1.00000000e+00  1.00000000e+00  1.00000000e+00
  1.00000000e+00  1.00000000e+00  1.83470016e-03  1.40373012e-02  6.88426061e-02
  2.32184421e-01  4.67941342e-01  3.62312032e-01 -1.19332409e-01 -1.60854212e-01
  1.14345648e+00  6.89990956e-02  3.16423980e-01  7.44308252e-01  1.00000000e+00
  1.00000000e+00  1.00000000e+00  1.00000000e+00  1.00000000e+00  1.83470016e-03
  1.40373012e-02  6.88426061e-02  2.32184421e-01  4.67941342e-01  3.62312032e-01
 -1.19332409e-01 -1.60854212e-01  1.14345648e+00  6.89990956e-02  3.16423980e-01
  7.44308252e-01  1.00000000e+00  1.00000000e+00  1.00000000e+00  1.00000000e+00
  1.00000000e+00  1.83470016e-03  1.40373012e-02  6.88426061e-02  2.32184421e-01
  4.67941342e-01  3.62312032e-01 -1.19332409e-01 -1.60854212e-01  1.14345648e+00
  6.89990956e-02  3.16423980e-01  7.44308252e-01  1.00000000e+00  1.00000000e+00
  1.00000000e+00  1.00000000e+00  1.00000000e+00  3.34945995e-02  2.34726947e-01
  8.13757318e-01  1.00000000e+00  3.34945995e-02  2.34726947e-01  8.13757318e-01
  1.00000000e+00  3.34945995e-02  2.34726947e-01  8.13757318e-01  1.00000000e+00
  3.34945995e-02  2.34726947e-01  8.13757318e-01  1.00000000e+00  3.34945995e-02
  2.34726947e-01  8.13757318e-01  1.00000000e+00  3.34945995e-02  2.34726947e-01
  8.13757318e-01  1.00000000e+00  3.34945995e-02  2.34726947e-01  8.13757318e-01
  1.00000000e+00  3.34945995e-02  2.34726947e-01  8.13757318e-01  1.00000000e+00
  1.83109981e-03  1.39500985e-02  6.84450927e-02  2.32714275e-01  4.70192950e-01
  3.58520862e-01 -1.10777504e-01 -1.48026305e-01  1.13076704e+00  7.08742995e-02
  3.39752798e-01  7.27158595e-01  1.00000000e+00  1.00000000e+00  1.00000000e+00
  1.00000000e+00  1.00000000e+00
Coordinates of each shell                  R   N=         168
 -2.74790636e+00 -2.72429730e+00  2.27693165e-01 -2.74790636e+00 -2.72429730e+00
  2.27693165e-01 -2.74790636e+00 -2.72429730e+00  2.27693165e-01 -2.74790636e+00
 -2.72429730e+00  2.27693165e-01 -2.74790636e+00 -2.72429730e+00  2.27693165e-01
 -2.74790636e+00 -2.72429730e+00  2.27693165e-01 -2.74790636e+00 -2.72429730e+00
  2.27693165e-01 -2.74790636e+00 -2.72429730e+00  2.27693165e-01 -2.03305535e+00
  7.18042178e-02  1.21052100e-01 -2.03305535e+00  7.18042178e-02  1.21052100e-01
 -2.03305535e+00  7.18042178e-02  1.21052100e-01 -2.03305535e+00  7.18042178e-02
  1.21052100e-01 -2.03305535e+00  7.18042178e-02  1.21052100e-01 -2.03305535e+00
  7.18042178e-02  1.21052100e-01 -2.03305535e+00  7.18042178e-02  1.21052100e-01
 -2.03305535e+00  7.18042178e-02  1.21052100e-01  8.00999429e-01  5.62349378e-01
 -6.10254029e-02  8.00999429e-01  5.62349378e-01 -6.10254029e-02  8.00999429e-01
  5.62349378e-01 -6.10254029e-02  8.00999429e-01  5.62349378e-01 -6.10254029e-02
  8.00999429e-01  5.62349378e-01 -6.10254029e-02  8.00999429e-01  5.62349378e-01
 -6.10254029e-02  8.00999429e-01  5.62349378e-01 -6.10254029e-02  8.00999429e-01
  5.62349378e-01 -6.10254029e-02  1.62547172e+00  3.31141080e+00 -1.76065951e-01
  1.62547172e+00  3.31141080e+00 -1.76065951e-01  1.62547172e+00  3.31141080e+00
 -1.76065951e-01  1.62547172e+00  3.31141080e+00 -1.76065951e-01  1.62547172e+00
  3.31141080e+00 -1.76065951e-01  1.62547172e+00  3.31141080e+00 -1.76065951e-01
  1.62547172e+00  3.31141080e+00 -1.76065951e-01  1.62547172e+00  3.31141080e+00
 -1.76065951e-01  9.77993899e-01  4.33384357e+00  1.50867527e+00  9.77993899e-01
  4.33384357e+00  1.50867527e+00  7.76486131e-01  4.25565548e+00 -1.81626562e+00
  7.76486131e-01  4.25565548e+00 -1.81626562e+00  3.68254263e+00  3.42696118e+00
 -3.03470825e-01  3.68254263e+00  3.42696118e+00 -3.03470825e-01 -2.74099420e+00
  1.08566917e+00  1.79376632e+00 -2.74099420e+00  1.08566917e+00  1.79376632e+00
 -2.93993345e+00  1.01106296e+00 -1.49825488e+00 -2.93993345e+00  1.01106296e+00
 -1.49825488e+00 -1.88880239e+00 -3.64942357e+00  1.86626129e+00 -1.88880239e+00
 -3.64942357e+00  1.86626129e+00 -2.08956953e+00 -3.72461755e+00 -1.45895416e+00
 -2.08956953e+00 -3.72461755e+00 -1.45895416e+00 -4.80324957e+00 -2.94082206e+00
  3.56637767e-01 -4.80324957e+00 -2.94082206e+00  3.56637767e-01  2.33511958e+00
 -1.15557081e+00 -1.12020028e-01  2.33511958e+00 -1.15557081e+00 -1.12020028e-01
  2.33511958e+00 -1.15557081e+00 -1.12020028e-01  2.33511958e+00 -1.15557081e+00
 -1.12020028e-01  2.33511958e+00 -1.15557081e+00 -1.12020028e-01  2.33511958e+00
 -1.15557081e+00 -1.12020028e-01  2.33511958e+00 -1.15557081e+00 -1.12020028e-01
  2.33511958e+00 -1.15557081e+00 -1.12020028e-01
Total Energy                               R     -2.324812899857364e+02
Alpha Orbital Energies                     R   N=         111
 -1.91514130e+01 -1.02856688e+01 -1.02045640e+01 -1.01979501e+01 -1.01829078e+01
 -1.04808252e+00 -7.91556718e-01 -7.43367926e-01 -6.47529433e-01 -5.31059138e-01
 -4.77256394e-01 -4.76390992e-01 -4.45928232e-01 -4.28803390e-01 -4.11907631e-01
 -3.71300571e-01 -3.69341211e-01 -3.67755821e-01 -3.51395368e-01 -2.56323665e-01
 -2.52842787e-02  9.85290373e-04  1.92726566e-02  3.73704917e-02  4.14796946e-02
  5.18836983e-02  6.41634065e-02  7.03290864e-02  7.98971613e-02  8.46851504e-02
  8.70751234e-02  1.05719917e-01  1.13789574e-01  1.23074509e-01  1.45530883e-01
  1.60249815e-01  1.77667325e-01  1.88890908e-01  1.92974521e-01  2.05508112e-01
  2.19412142e-01  2.48941414e-01  2.53134197e-01  2.58027586e-01  2.81174813e-01
  2.85286161e-01  2.94095587e-01  3.17782940e-01  3.28859903e-01  3.46522144e-01
  3.59871669e-01  3.88977717e-01  4.88872707e-01  6.14684393e-01  6.42288959e-01
  6.54570950e-01  6.56545585e-01  6.66879227e-01  6.92806708e-01  6.99675490e-01
  7.13653284e-01  7.85277331e-01  7.96412361e-01  8.15592893e-01  8.79406319e-01
  8.99621936e-01  9.41149124e-01  9.95904011e-01  9.97396169e-01  1.00826344e+00
  1.03953944e+00  1.09436694e+00  1.11409647e+00  1.12842435e+00  1.15609878e+00
  1.26333019e+00  1.31137794e+00  1.36495841e+00  1.38298775e+00  1.43158263e+00
  1.43957746e+00  1.55669327e+00  1.58186380e+00  1.70484705e+00  1.76721874e+00
  1.78103325e+00  1.79199634e+00  1.85770989e+00  1.92930757e+00  1.93775202e+00
  1.97426704e+00  1.98770821e+00  2.11138538e+00  2.14476412e+00  2.18922814e+00
  2.24958130e+00  2.31868147e+00  2.32786190e+00  2.35420844e+00  2.41545146e+00
  2.51325932e+00  2.59147406e+00  2.60245497e+00  2.77787315e+00  3.00335186e+00
  3.11387228e+00  4.14547718e+00  4.19183435e+00  4.30393151e+00  4.42712566e+00
  4.53964068e+00
Alpha MO coefficients                      R   N=       12321
 -1.13990223e-05 -2.11405915e-05 -1.67662111e-05  6.26498247e-07  9.60386587e-07
  4.30119760e-04 -1.48874291e-04  4.01059632e-05  8.36219451e-06 -5.39173192e-05
 -6.03780206e-06 -2.83365159e-05 -1.07300993e-05  2.05319095e-06  4.95503520e-08
  1.06123904e-03  4.10782762e-04  1.65288539e-04 -2.87813101e-05  2.04299875e-06
 -4.30478399e-05  1.70207623e-06 -1.12204233e-05  1.82235604e-07  1.09624333e-04
  1.78961923e-04  3.44445791e-04 -1.90680766e-05  6.10702425e-05  6.94906614e-06
  6.91285290e-07 -4.28473172e-05 -3.16842504e-06  2.38291794e-06 -3.12537570e-04
  2.12804581e-05 -6.06832609e-04  1.37547748e-05  1.65869506e-05 -3.79460708e-04
 -1.76056881e-04  2.15666450e-04  5.41877091e-06 -1.04664587e-04  8.18370911e-04
 -9.72345964e-04 -2.58656327e-05  2.97455660e-04  3.42968934e-04  1.76035501e-04
 -2.01616267e-04 -3.60117018e-06  7.48885181e-06 -5.46093707e-04 -1.08839380e-03
  3.37702181e-03 -1.49972527e-05 -9.59757540e-07 -6.91582556e-05  3.04407932e-06
 -3.36533657e-05  6.23529075e-07  3.63500387e-04 -1.71561030e-04  5.91747690e-06
  1.00629766e-05  9.70629554e-06  6.68720377e-05  4.71416845e-06 -2.70415474e-05
  3.13700530e-07 -1.03547272e-07 -2.50631783e-03  5.91555692e-04  3.18285869e-04
 -4.33028307e-05  9.69798123e-07 -1.37907418e-04  9.00532889e-07 -1.37981436e-04
 -2.05330732e-06 -1.68483633e-04  1.63252731e-05 -1.30949117e-04  1.61493239e-05
 -1.30857363e-04  2.89939826e-06 -2.20322503e-04  3.03470951e-06 -2.19948689e-04
 -7.80562800e-06 -2.44331566e-04 -9.92578399e-01 -2.52200407e-02  8.40032321e-04
 -9.46981296e-04 -2.77852722e-05 -1.56509279e-02 -1.52850734e-04  2.56599400e-04
  3.02935287e-06  8.56202732e-03  8.55344518e-03  8.63454749e-03  5.90040266e-05
  3.62482371e-06 -1.30226486e-06  6.57416663e-03  2.76314152e-05 -3.00625153e-04
  5.53417978e-06  2.93436676e-05  7.56814255e-05 -4.83768559e-06  1.73609318e-05
 -1.32285381e-07 -2.54270725e-04  4.28443140e-04  1.42154542e-04 -2.94599307e-05
 -7.34679300e-06  8.84061788e-06  6.27967160e-05  2.30683499e-05  4.35997944e-06
 -4.53317460e-08  2.88096925e-03  1.77634518e-04  1.01074229e-03 -3.46176687e-05
 -1.30334484e-03  3.47192945e-05  1.67668035e-04  1.21504177e-05 -1.06064113e-05
 -3.36986445e-03 -1.70761393e-03 -6.23643205e-04  1.19260922e-04  4.43433311e-04
  1.05970700e-04  5.65579646e-05  5.12014464e-05 -2.82005150e-05 -4.43344805e-06
 -4.31880567e-04  1.00791140e-03  8.30360661e-04 -7.75608374e-05 -9.93095858e-01
 -4.95535612e-02 -6.64636172e-04  6.41759183e-04  2.44787793e-05  1.66756937e-02
 -1.09499221e-03  1.16758976e-03  3.75168259e-05  8.59412795e-03  8.48140512e-03
  9.08915817e-03  4.66961248e-04  2.32598839e-05 -1.12357975e-05 -4.82195385e-03
  8.01900806e-04 -7.12752492e-04 -3.19944638e-05 -1.23835115e-03  3.19857335e-05
 -3.06904567e-05 -1.32926159e-04  4.91930581e-06 -3.42590309e-03  7.28744251e-04
  1.32378997e-03 -7.45896764e-05  1.18544538e-04  4.53609038e-04  2.67964744e-05
  8.44245693e-05 -8.48424171e-06 -1.68018654e-05  3.11791181e-03 -4.65342180e-04
 -1.06747401e-03  5.34135301e-05  1.66179515e-04 -5.10783945e-05  1.66256901e-04
 -5.00524915e-05  4.58809028e-05  3.44745644e-04  1.31044839e-04  3.32664090e-05
  1.30997121e-04  3.62871421e-05 -3.63645363e-05  2.96764853e-04 -3.63609870e-05
  2.96285720e-04  8.30561925e-05  2.02323201e-05  9.97787669e-05 -4.93723465e-04
 -1.97921700e-05  3.91587962e-05  2.64477301e-07  2.37815547e-03 -8.70260117e-04
  8.68649066e-04  3.14044006e-05 -1.45153819e-04 -7.25047577e-05 -4.91510979e-04
 -3.08915603e-04 -1.66826676e-05  6.95639018e-06 -5.27201347e-03  2.12082561e-03
 -2.10569957e-03 -7.65601562e-05  4.85414956e-03 -9.44230151e-05  4.01507770e-05
 -5.11156118e-05 -1.24708128e-06  5.70775066e-03  6.69513041e-04  2.49338140e-03
 -9.68302305e-05 -2.05667500e-04 -4.32881677e-04 -1.32728004e-04 -2.79394538e-05
  5.78078708e-06  9.60551095e-06 -3.08653992e-03 -7.59187339e-04 -6.82388772e-04
  6.08492444e-05  9.93082191e-01  5.07622617e-02  4.01907581e-05  1.04850368e-04
 -4.54722887e-06 -2.34530880e-02 -1.78094482e-03  9.13100331e-04  8.50932552e-05
 -9.01549456e-03 -8.92559112e-03 -8.74381635e-03  3.19253794e-06  1.89170622e-05
  4.54306952e-06 -2.03615345e-04 -8.77286667e-05 -1.47591215e-03  3.92528258e-05
 -1.50079893e-03 -2.77110514e-04  1.85188126e-04  5.28933029e-05 -1.23659459e-05
  4.99058164e-03 -4.27531159e-03 -2.42434507e-03  3.14543577e-04 -3.68788032e-04
 -8.19185574e-05 -1.31415067e-04 -2.37715284e-05  1.71034097e-05  3.19607258e-08
 -7.62415113e-03 -1.68244432e-03 -4.43143444e-03  2.04408538e-04 -8.27217552e-04
 -3.76377725e-04  1.41869417e-04  1.80860056e-05 -8.95386516e-06  2.33871526e-03
 -4.19122141e-04 -8.60153059e-04  4.57556359e-05 -8.23056327e-05  2.44059904e-06
 -1.43105703e-04 -4.74807336e-05 -3.14237931e-06 -1.18958901e-06  1.02002025e-02
 -1.08506765e-03 -2.07207848e-03  1.15737828e-04 -5.76930036e-05 -3.70156870e-04
 -5.75671888e-05 -3.70852815e-04 -5.23853145e-05  1.04305736e-04 -1.19239392e-05
  3.98898485e-03 -1.21560992e-05  3.98768338e-03 -1.93757936e-04 -8.57782519e-05
 -1.93589201e-04 -8.61119630e-05 -1.78895695e-04 -2.03139498e-04  1.05810872e-05
  1.78895377e-05 -2.08166435e-05 -1.84925889e-05  1.67883924e-06 -6.01624624e-04
  6.22851974e-04  2.97881293e-04 -4.45840971e-05 -2.64726249e-05  1.93300659e-04
 -6.90056314e-05  1.23836664e-05 -3.38560534e-06 -8.01754546e-06  4.42452826e-04
  3.49929013e-05  9.30861994e-04 -2.31274676e-05 -1.55622759e-04 -2.36480983e-04
 -4.27651603e-05 -3.75572004e-05  3.41471131e-06  1.33551224e-03  4.32771986e-04
  6.03430550e-04 -4.02765181e-05 -5.66261537e-05 -7.90076622e-06 -8.89942195e-05
  3.99590382e-05 -3.19423855e-06 -4.61298191e-06  6.92290543e-03  1.33475523e-03
  1.38931451e-03 -1.11365553e-04  6.98076054e-04 -2.40914407e-04 -2.42088344e-05
 -1.46863880e-04  4.66076989e-06  1.27078020e-03  8.19237284e-04  9.22226014e-04
 -6.83205568e-05 -3.30583589e-06 -1.47348713e-04 -1.21545373e-04 -5.40803180e-05
 -6.94400296e-06  3.82695207e-06 -1.02470193e-02 -1.64709759e-03  1.56359901e-03
  6.47258026e-05 -1.42926433e-03 -2.42182707e-04 -1.35697594e-04 -1.52756521e-04
  1.19071975e-05  4.02989467e-03  2.01280918e-03  3.76518578e-03 -2.11845141e-04
 -1.23376424e-04 -3.41370650e-04 -9.54112168e-05 -4.31320534e-05  3.08382905e-06
  9.39454225e-06  2.08277756e-02  8.53355439e-04  6.67114897e-03 -2.10766804e-04
  9.92946899e-01  5.06232444e-02 -2.02099528e-04 -4.72569360e-05  1.34664153e-05
 -2.02910702e-02  7.36684116e-04  1.85533497e-03 -8.87248159e-05 -9.06679845e-03
 -9.28564046e-03 -9.06227554e-03 -3.99709958e-05  1.30400300e-06  8.46262499e-06
 -1.85061007e-02  1.42132389e-03  4.01380508e-03 -1.81395162e-04 -1.10644860e-04
  3.76788239e-03 -1.10783304e-04  3.76806134e-03 -1.04281093e-04  3.52725492e-03
 -1.08118641e-04 -2.11717486e-04 -1.08252525e-04 -2.08619904e-04 -4.11090229e-05
 -1.67036692e-04 -4.11169001e-05 -1.67377753e-04 -1.06861818e-05  6.07944846e-05
 -1.00212939e-05 -8.75802426e-05  3.02780546e-05 -9.24326502e-06 -1.60175800e-06
  1.23289175e-04 -5.76278719e-04 -2.08178510e-04  3.96149001e-05  1.15117517e-04
 -2.35613267e-05 -1.29561913e-04 -4.52973795e-05 -1.59675402e-05 -1.47559423e-07
  4.91669052e-04 -2.99073239e-04 -1.32122613e-04  2.21886273e-05  9.92972592e-01
  5.03053606e-02  6.81796167e-05  1.86720507e-04 -8.51919555e-06 -1.95787981e-02
 -7.75125006e-04 -1.50945904e-03  8.18395007e-05 -8.97896427e-03 -9.15823544e-03
 -8.99066017e-03 -6.13028339e-05  5.98297143e-07  8.09399813e-06 -1.39859765e-02
 -7.56862417e-04 -3.12870817e-03  1.16370138e-04 -5.12507882e-03 -6.17474787e-04
  3.98892166e-05  1.38767154e-04 -5.46207978e-06  5.92994291e-03 -4.90630337e-04
 -2.58257279e-03  8.74945305e-05 -1.05722397e-04 -3.52662599e-04 -8.43354598e-05
 -8.67528241e-05  3.49848957e-06  1.23024296e-05  2.82301823e-02  2.86027129e-03
 -5.14975825e-03 -5.47612910e-05  1.25994154e-05 -2.99569291e-05  5.74833434e-06
  1.56235059e-04 -4.09084507e-06 -2.06875956e-03 -2.54802771e-04 -6.16588545e-05
  1.72791567e-05 -2.82965942e-05 -6.10636956e-05 -3.08818400e-05  1.47277223e-05
 -5.57576908e-07  9.76785586e-08 -1.44572865e-02  6.03781997e-03  3.59803764e-03
 -4.46376411e-04  6.48858465e-05 -2.12224945e-04  2.99453826e-05 -7.15855913e-06
 -1.68584645e-06  1.39780386e-03 -3.29872563e-04 -5.18291022e-04  3.22639901e-05
 -7.65871935e-05 -6.12798056e-06 -6.98083818e-05  3.35047211e-05 -3.53510876e-07
 -3.74104699e-06 -1.19991533e-03 -1.05307642e-03  3.22054943e-04  5.54878191e-05
 -5.02009282e-05 -2.01976860e-04 -5.00139961e-05 -2.02397877e-04 -1.77306610e-05
 -3.57194392e-05 -1.45752046e-04 -4.56687534e-04 -1.45744923e-04 -4.57718209e-04
 -6.53317741e-05  3.62171465e-03 -6.53882933e-05  3.62294485e-03 -1.45961069e-04
  3.33056771e-03 -3.89385743e-05 -1.68538258e-04  7.07387412e-05 -1.64233067e-05
 -3.80847524e-06  7.79155768e-04 -3.99628180e-04  4.89446965e-04  1.23174301e-05
 -4.80277737e-05 -8.88587966e-05 -1.89208474e-04 -5.10447589e-05 -8.42545972e-06
  3.47336638e-07  1.92048062e-03 -7.55787810e-04 -6.95886559e-04  6.01511007e-05
  5.78585355e-03 -1.02521523e-02 -4.89701410e-03 -5.15056528e-03  4.10029477e-04
  3.39447765e-03 -6.02930155e-03  4.35860727e-03  2.74841633e-04 -9.37895915e-04
 -4.44378607e-04  1.68888903e-04 -9.31578782e-04  9.84984987e-05  7.26001813e-05
  2.82429709e-02  9.22026697e-03  4.69757474e-03 -6.56823884e-04  1.86147268e-02
 -3.35853358e-02 -2.64912698e-02  2.11606584e-03  1.54142584e-03 -7.52506443e-03
  6.55887880e-03  1.65702393e-02 -7.98593828e-04 -6.97068358e-03  1.18227562e-03
  1.29265597e-03  6.84263297e-04  5.59151021e-04 -3.88118691e-05 -6.78926455e-02
 -1.48183177e-02 -8.97159947e-03  1.10290811e-03  1.19541457e-01 -2.30913391e-01
 -1.19755293e-01  1.34573404e-01  3.96717410e-03 -8.46405654e-02  3.48120736e-02
 -3.86222915e-02 -1.16757866e-03  3.39584471e-04 -4.13826399e-03  1.97860356e-02
  2.35674968e-02  7.85784394e-04 -7.53325194e-04  1.41241863e-01 -1.52777578e-02
  7.09667187e-02 -7.62789181e-04  1.81150567e-02 -3.31546602e-02  1.15503254e-03
  2.64221007e-02 -7.00478014e-04 -4.64120393e-03 -1.50291926e-02  1.91046292e-04
  8.94761545e-04  9.72771948e-04 -7.25730419e-03  1.26972015e-03 -2.87995353e-04
  2.91019881e-05  2.52085676e-04 -1.18717577e-01  1.40483485e-02  2.42721646e-02
 -1.42686579e-03 -6.05277481e-03 -1.35792471e-03 -6.05201019e-03 -1.36437400e-03
 -8.15866483e-03  5.46576993e-03 -6.22677655e-03  2.40581444e-04 -6.22656053e-03
  2.24436412e-04 -2.69975360e-03 -4.57355345e-04 -2.69600278e-03 -4.47964572e-04
 -1.63984063e-03 -4.49306792e-03  1.94081276e-01 -4.18617779e-01  1.08272170e-01
 -1.20826062e-01 -3.61016472e-03 -4.17472385e-01  3.97369489e-02 -4.26977345e-02
 -1.36453700e-03  3.02598793e-03  7.78415876e-04  8.27421566e-03  1.23347062e-02
  6.82648615e-05 -5.33566679e-04  2.20759956e-02  2.59770924e-03 -1.01062232e-02
  8.63869964e-05  9.77429869e-02 -1.84566965e-01 -1.38704469e-02 -5.47450078e-02
  2.08864433e-03 -1.57443713e-01  1.91298931e-03 -4.57684895e-03 -9.52656709e-06
  1.56362835e-03 -5.42002369e-03  1.87237799e-03 -2.21726635e-03  7.35479740e-05
  3.26066505e-04 -3.83402213e-02 -4.36220304e-03 -9.02861446e-03  4.66831666e-04
  1.48515860e-01 -2.81931107e-01 -1.77024557e-02  6.68243161e-03  9.25171271e-04
 -2.51870088e-01 -2.11278583e-03 -9.84028553e-03  3.53894279e-04  2.15732410e-03
 -9.95645295e-04  1.38278445e-03 -2.27737051e-03 -1.20370962e-06  2.00050513e-04
 -1.39571104e-02 -1.26676372e-02 -4.75787033e-03  8.69183138e-04  6.71042683e-02
 -1.34020756e-01  1.29481878e-01 -8.58741729e-02 -5.72757812e-03 -9.49375969e-02
  1.93027178e-02 -1.95697723e-02 -6.96752383e-04 -4.14630102e-03  2.79229849e-03
  4.64108895e-03 -1.30897886e-02  9.27832218e-04  8.37311464e-04  4.19706880e-02
  7.81421485e-03 -1.90625881e-02 -2.54795404e-05  7.38108506e-02 -1.40253388e-01
  2.84970128e-02  2.43121196e-02 -2.29627118e-03 -1.23533407e-01  6.26776989e-03
 -6.56576224e-04 -3.62482817e-04 -2.61673815e-04 -4.25700288e-04  2.55696553e-04
 -2.47625656e-03  9.52945200e-05  1.68827140e-04 -1.07748819e-02 -4.65961652e-03
  6.97642931e-03  1.17342455e-04 -4.61692850e-02 -2.21353272e-03 -4.61718803e-02
 -2.21991134e-03 -3.45727814e-02  7.81052100e-04 -8.82378475e-02 -1.66721715e-03
 -8.82449052e-02 -1.66837606e-03 -5.18467672e-02  7.46120344e-04 -5.18558133e-02
  7.36945966e-04 -5.25358652e-02  1.71551899e-03 -5.70067257e-02  1.29199021e-01
  4.93303304e-03  1.20443635e-02 -5.85000088e-04  1.34269597e-01  7.92757127e-03
 -1.46174776e-03 -4.40075462e-04 -3.62772178e-03 -1.42548992e-03 -3.29849129e-04
  9.67095313e-04  2.06016147e-04 -2.75389018e-05 -4.29527363e-03 -7.73851612e-03
  8.50627791e-03  2.66363690e-04  9.47740308e-02 -1.79803188e-01 -5.00924787e-03
 -2.50550030e-02  8.73202405e-04 -1.66977079e-01 -1.41848365e-03 -2.60276570e-04
  9.69025130e-05  2.79302230e-04 -6.40675049e-04  7.45028846e-04 -2.95138994e-04
  3.94486155e-05  5.45106422e-05 -8.77203877e-02 -7.73321209e-03 -1.98790027e-02
  9.09649361e-04  5.72058026e-02 -1.08720416e-01  3.89701678e-02  6.62102370e-02
 -3.88024707e-03 -1.11592716e-01  6.07999078e-03  1.08126093e-02 -6.24436680e-04
  5.05562151e-03 -4.02347374e-03  6.50414795e-04  1.70726777e-03 -3.49278393e-04
  1.73384493e-05  2.55414885e-02 -1.42128754e-02 -3.11435455e-02  1.57590908e-03
 -4.98977404e-02  1.01735713e-01  3.78868384e-02  1.56871735e-01 -6.00905886e-03
  7.37612752e-02 -8.68408504e-03  2.04699272e-02  4.06447013e-05 -7.43195502e-03
  6.43993996e-03 -3.73206772e-03  6.97678041e-03  8.88541616e-05 -6.98564391e-04
 -1.00802137e-01 -3.15017716e-02 -3.45593361e-02  2.72143738e-03 -1.61720379e-01
  3.07149215e-01 -1.30724869e-02 -2.12959354e-02  1.30474410e-03  3.14912633e-01
 -6.69001584e-03 -2.93777626e-03  4.79037019e-04  1.03126107e-04 -1.16286779e-03
  3.16988574e-04 -4.51268234e-04  2.41821928e-05  6.56368655e-05  1.61466986e-01
 -1.26798081e-02 -3.98358378e-02  1.71076983e-03  1.04333596e-01  6.60807708e-03
  1.04331164e-01  6.60339332e-03  9.92929770e-02  7.16709618e-03 -3.01452049e-02
 -9.85327879e-05 -3.01277383e-02 -9.28695193e-05 -5.68993414e-02 -2.30420822e-03
 -5.69015533e-02 -2.30152921e-03 -5.80406097e-02 -6.05882213e-03  2.92845126e-02
 -6.73451708e-02  2.38484540e-02  3.13792467e-02 -2.17554758e-03 -7.00172137e-02
  7.60167638e-03  1.88652968e-02 -9.05706277e-04 -2.88463930e-03  5.62793509e-03
 -4.02340205e-04 -1.00344099e-03  1.96199818e-04 -1.05826449e-04  2.94074310e-03
  5.31400488e-03 -4.77773910e-03 -2.11674269e-04  1.40000832e-01 -2.72329464e-01
  2.90536707e-02  8.01192254e-02 -3.55655274e-03 -2.94823301e-01  1.34906817e-02
  2.55636014e-02 -1.39253308e-03 -2.94601490e-03  1.06873369e-02 -3.86634600e-03
  4.91442888e-03 -1.76838633e-04 -6.77711772e-04 -1.29005252e-01 -6.57054161e-03
 -3.17184086e-02  1.11974046e-03 -8.99776843e-02  1.76511181e-01  6.97850101e-02
  1.36394815e-01 -7.28697054e-03  2.04246156e-01  1.86685890e-02  4.33423310e-02
 -2.09123548e-03  3.85775327e-03 -1.37468556e-02  3.75889842e-03 -4.68708694e-03
  1.02702306e-04  7.44018537e-04  1.45571620e-01 -4.78993542e-04 -2.64715385e-02
  6.31960051e-04 -5.29754250e-02  1.11157425e-01 -1.42672721e-01 -2.64323520e-02
  9.23856489e-03  9.81384158e-02 -2.52078090e-02  1.55170217e-02  1.15659397e-03
  5.35611869e-03 -1.02064876e-02 -3.91248927e-03 -1.71979629e-04 -6.44694361e-04
  1.80650121e-04  6.78020142e-02  1.13924456e-02  3.42185763e-02 -1.49845657e-03
  7.10227357e-02 -1.36264843e-01 -4.24890345e-02 -4.71017294e-02  3.67926412e-03
 -1.72432992e-01 -1.11791543e-02 -8.76615836e-03  8.79712514e-04 -1.13776756e-03
  4.65170344e-03 -1.88910168e-03  5.01145458e-03 -1.71410205e-04 -4.81244776e-04
 -1.03316510e-01  7.99993434e-03  2.26226789e-02 -1.01725001e-03 -5.52367527e-02
 -1.04813970e-02 -5.52369644e-02 -1.04764799e-02 -7.16419073e-02 -1.46061422e-02
  8.16969712e-02  1.65505397e-02  8.16820208e-02  1.65529029e-02 -1.12257541e-01
 -2.17357442e-02 -1.12267448e-01 -2.17477930e-02 -1.17879142e-01 -2.40621841e-02
  1.94010951e-02 -4.55868283e-02 -4.06727663e-02 -2.19500426e-03  2.51460421e-03
 -4.77324318e-02 -2.27340486e-02  1.36136301e-03  1.34098592e-03  4.51394641e-03
 -2.24147185e-03 -8.19693167e-04 -3.19896237e-03 -2.95488903e-04  2.32052170e-04
 -7.32699528e-03  3.37028465e-03 -7.43146381e-03 -2.88124432e-05  2.92956010e-02
 -5.92724179e-02 -4.29593774e-02  1.09982554e-01  1.23991244e-04 -7.38553707e-02
 -1.09868143e-02  3.89506866e-02 -2.15997806e-04 -1.95470520e-03  7.93902168e-03