Generated by Psi4
     FORCE                           RHF                       TESTBAS
Number of atoms                            I               30
Charge                                     I                0
Multiplicity                               I                1
Number of electrons                        I              100
Number of alpha electrons                  I               50
Number of beta electrons                   I               50
Number of basis functions                  I              281
Number of independent functions            I              281
Atomic numbers                             I   N=          30
           6           6           7           6           6           6
           8           8           1           6           1           1
           1           1           1           1           6           6
           6           1           1           1           1           1
           6           1           1           1           1           1
Nuclear charges                            R   N=          30
  6.00000000e+00  6.00000000e+00  7.00000000e+00  6.00000000e+00  6.00000000e+00
  6.00000000e+00  8.00000000e+00  8.00000000e+00  1.00000000e+00  6.00000000e+00
  1.00000000e+00  1.00000000e+00  1.00000000e+00  1.00000000e+00  1.00000000e+00
  1.00000000e+00  6.00000000e+00  6.00000000e+00  6.00000000e+00  1.00000000e+00
  1.00000000e+00  1.00000000e+00  1.00000000e+00  1.00000000e+00  6.00000000e+00
  1.00000000e+00  1.00000000e+00  1.00000000e+00  1.00000000e+00  1.00000000e+00
Current cartesian coordinates              R   N=          90
  3.00698050e-01 -4.00064178e+00  4.59242506e-01  2.52482496e+00 -2.91746696e+00
  1.97092324e+00  1.77850207e+00 -6.03012625e-01  3.26051143e+00  1.22209282e-01
  1.14512474e+00  2.31931389e+00 -6.22139370e-01  8.40967852e-01 -4.78947248e-01
 -9.04004740e-01 -1.98048626e+00 -1.23268515e+00 -6.46423205e-01  2.89398973e+00
  3.63759394e+00 -2.02621818e+00 -2.57625346e+00 -3.15070634e+00  2.26745889e+00
 -3.38845316e-01  5.09314067e+00  1.00380145e+00 -6.39448270e+00 -1.00669347e+00
 -1.18770032e+00 -4.46809519e+00  1.84270056e+00  2.51173666e+00 -6.01421339e+00
 -2.37623278e+00 -6.24849686e-01 -7.11047338e+00 -2.05413147e+00  1.66191175e+00
 -7.87198536e+00  2.87732949e-01  4.15483483e+00 -2.59206911e+00  7.22650997e-01
  3.12716129e+00 -4.28370118e+00  3.40209267e+00  1.61453946e+00  1.80610732e+00
 -2.20707543e+00 -3.16548240e+00  2.20126976e+00 -1.04028460e+00 -3.16974430e+00
  5.09488657e+00 -1.21695618e+00 -4.51693148e+00  1.62773841e+00  4.24407044e-01
 -3.85794923e+00  1.42028518e+00 -2.82593553e+00 -2.50067266e+00  5.97306279e+00
  5.27267123e-01 -5.10991073e+00  5.74064563e+00 -1.55885601e+00 -2.02179935e+00
  5.77879001e+00 -2.79991966e+00  3.09705531e+00  4.11483426e+00 -1.26462024e+00
  7.86018413e-01  2.18114183e+00 -4.06823641e+00  2.96933400e+00  2.62609462e-01
 -2.50599735e+00  1.88392875e+00  5.74599114e+00 -9.11637586e-01  4.50182460e+00
  4.65273960e+00 -2.69067776e+00  4.11484015e+00  3.70241369e+00  4.90550061e-01
Integer atomic weights                     I   N=          30
          12          12          14          12          12          12
          15          15           1          12           1           1
           1           1           1           1          12          12
          12           1           1           1           1           1
          12           1           1           1           1           1
Real atomic weights                        R   N=          30
  1.20000000e+01  1.20000000e+01  1.40030740e+01  1.20000000e+01  1.20000000e+01
  1.20000000e+01  1.59949146e+01  1.59949146e+01  1.00782503e+00  1.20000000e+01
  1.00782503e+00  1.00782503e+00  1.00782503e+00  1.00782503e+00  1.00782503e+00
  1.00782503e+00  1.20000000e+01  1.20000000e+01  1.20000000e+01  1.00782503e+00
  1.00782503e+00  1.00782503e+00  1.00782503e+00  1.00782503e+00  1.20000000e+01
  1.00782503e+00  1.00782503e+00  1.00782503e+00  1.00782503e+00  1.00782503e+00
Number of primitive shells                 I              289
Number of contracted shells                I              138
Pure/Cartesian d shells                    I                1
Pure/Cartesian f shells                    I                1
Highest angular momentum                   I                2
Largest degree of contraction              I                6
Shell types                                I   N=         138
           0           0           1           0           1           2
           0           1           0           0           1           0
           1           2           0           1           0           0
           1           0           1           2           0           1
           0           0           1           0           1           2
           0           1           0           0           1           0
           1           2           0           1           0           0
           1           0           1           2           0           1
           0           0           1           0           1           2
           0           1           0           0           1           0
           1           2           0           1           0           0
           0           0           1           0           1           2
           0           1           0           0           0           0
           0           0           0           0           0           0
           0           0           0           0           1           0
           1           2           0           1           0           0
           1           0           1           2           0           1
           0           0           1           0           1           2
           0           1           0           0           0           0
           0           0           0           0           0           0
           0           0           1           0           1           2
           0           1           0           0           0           0
           0           0           0           0           0           0
Number of primitives per shell             I   N=         138
           6           3           3           1           1           1
           1           1           6           3           3           1
           1           1           1           1           6           3
           3           1           1           1           1           1
           6           3           3           1           1           1
           1           1           6           3           3           1
           1           1           1           1           6           3
           3           1           1           1           1           1
           6           3           3           1           1           1
           1           1           6           3           3           1
           1           1           1           1           3           1
           6           3           3           1           1           1
           1           1           3           1           3           1
           3           1           3           1           3           1
           3           1           6           3           3           1
           1           1           1           1           6           3
           3           1           1           1           1           1
           6           3           3           1           1           1
           1           1           3           1           3           1
           3           1           3           1           3           1
           6           3           3           1           1           1
           1           1           3           1           3           1
           3           1           3           1           3           1
Shell to atom map                          I   N=         138
           1           1           1           1           1           1
           1           1           2           2           2           2
           2           2           2           2           3           3
           3           3           3           3           3           3
           4           4           4           4           4           4
           4           4           5           5           5           5
           5           5           5           5           6           6
           6           6           6           6           6           6
           7           7           7           7           7           7
           7           7           8           8           8           8
           8           8           8           8           9           9
          10          10          10          10          10          10
          10          10          11          11          12          12
          13          13          14          14          15          15
          16          16          17          17          17          17
          17          17          17          17          18          18
          18          18          18          18          18          18
          19          19          19          19          19          19
          19          19          20          20          21          21
          22          22          23          23          24          24
          25          25          25          25          25          25
          25          25          26          26          27          27
          28          28          29          29          30          30
Primitive exponents                        R   N=         289
  3.04752490e+03  4.57369510e+02  1.03948690e+02  2.92101550e+01  9.28666300e+00
  3.16392700e+00  7.86827240e+00  1.88128850e+00  5.44249300e-01  7.86827240e+00
  1.88128850e+00  5.44249300e-01  1.68714400e-01  1.68714400e-01  8.00000000e-01
  4.38000000e-02  4.38000000e-02  3.04752490e+03  4.57369510e+02  1.03948690e+02
  2.92101550e+01  9.28666300e+00  3.16392700e+00  7.86827240e+00  1.88128850e+00
  5.44249300e-01  7.86827240e+00  1.88128850e+00  5.44249300e-01  1.68714400e-01
  1.68714400e-01  8.00000000e-01  4.38000000e-02  4.38000000e-02  4.17351100e+03
  6.27457900e+02  1.42902100e+02  4.02343300e+01  1.28202100e+01  4.39043700e+00
  1.16263580e+01  2.71628000e+00  7.72218000e-01  1.16263580e+01  2.71628000e+00
  7.72218000e-01  2.12031300e-01  2.12031300e-01  8.00000000e-01  6.39000000e-02
  6.39000000e-02  3.04752490e+03  4.57369510e+02  1.03948690e+02  2.92101550e+01
  9.28666300e+00  3.16392700e+00  7.86827240e+00  1.88128850e+00  5.44249300e-01
  7.86827240e+00  1.88128850e+00  5.44249300e-01  1.68714400e-01  1.68714400e-01
  8.00000000e-01  4.38000000e-02  4.38000000e-02  3.04752490e+03  4.57369510e+02
  1.03948690e+02  2.92101550e+01  9.28666300e+00  3.16392700e+00  7.86827240e+00
  1.88128850e+00  5.44249300e-01  7.86827240e+00  1.88128850e+00  5.44249300e-01
  1.68714400e-01  1.68714400e-01  8.00000000e-01  4.38000000e-02  4.38000000e-02
  3.04752490e+03  4.57369510e+02  1.03948690e+02  2.92101550e+01  9.28666300e+00
  3.16392700e+00  7.86827240e+00  1.88128850e+00  5.44249300e-01  7.86827240e+00
  1.88128850e+00  5.44249300e-01  1.68714400e-01  1.68714400e-01  8.00000000e-01
  4.38000000e-02  4.38000000e-02  5.48467170e+03  8.25234950e+02  1.88046960e+02
  5.29645000e+01  1.68975700e+01  5.79963530e+00  1.55396160e+01  3.59993360e+00
  1.01376180e+00  1.55396160e+01  3.59993360e+00  1.01376180e+00  2.70005800e-01
  2.70005800e-01  8.00000000e-01  8.45000000e-02  8.45000000e-02  5.48467170e+03
  8.25234950e+02  1.88046960e+02  5.29645000e+01  1.68975700e+01  5.79963530e+00
  1.55396160e+01  3.59993360e+00  1.01376180e+00  1.55396160e+01  3.59993360e+00
  1.01376180e+00  2.70005800e-01  2.70005800e-01  8.00000000e-01  8.45000000e-02
  8.45000000e-02  1.87311370e+01  2.82539370e+00  6.40121700e-01  1.61277800e-01
  3.04752490e+03  4.57369510e+02  1.03948690e+02  2.92101550e+01  9.28666300e+00
  3.16392700e+00  7.86827240e+00  1.88128850e+00  5.44249300e-01  7.86827240e+00
  1.88128850e+00  5.44249300e-01  1.68714400e-01  1.68714400e-01  8.00000000e-01
  4.38000000e-02  4.38000000e-02  1.87311370e+01  2.82539370e+00  6.40121700e-01
  1.61277800e-01  1.87311370e+01  2.82539370e+00  6.40121700e-01  1.61277800e-01
  1.87311370e+01  2.82539370e+00  6.40121700e-01  1.61277800e-01  1.87311370e+01
  2.82539370e+00  6.40121700e-01  1.61277800e-01  1.87311370e+01  2.82539370e+00
  6.40121700e-01  1.61277800e-01  1.87311370e+01  2.82539370e+00  6.40121700e-01
  1.61277800e-01  3.04752490e+03  4.57369510e+02  1.03948690e+02  2.92101550e+01
  9.28666300e+00  3.16392700e+00  7.86827240e+00  1.88128850e+00  5.44249300e-01
  7.86827240e+00  1.88128850e+00  5.44249300e-01  1.68714400e-01  1.68714400e-01
  8.00000000e-01  4.38000000e-02  4.38000000e-02  3.04752490e+03  4.57369510e+02
  1.03948690e+02  2.92101550e+01  9.28666300e+00  3.16392700e+00  7.86827240e+00
  1.88128850e+00  5.44249300e-01  7.86827240e+00  1.88128850e+00  5.44249300e-01
  1.68714400e-01  1.68714400e-01  8.00000000e-01  4.38000000e-02  4.38000000e-02
  3.04752490e+03  4.57369510e+02  1.03948690e+02  2.92101550e+01  9.28666300e+00
  3.16392700e+00  7.86827240e+00  1.88128850e+00  5.44249300e-01  7.86827240e+00
  1.88128850e+00  5.44249300e-01  1.68714400e-01  1.68714400e-01  8.00000000e-01
  4.38000000e-02  4.38000000e-02  1.87311370e+01  2.82539370e+00  6.40121700e-01
  1.61277800e-01  1.87311370e+01  2.82539370e+00  6.40121700e-01  1.61277800e-01
  1.87311370e+01  2.82539370e+00  6.40121700e-01  1.61277800e-01  1.87311370e+01
  2.82539370e+00  6.40121700e-01  1.61277800e-01  1.87311370e+01  2.82539370e+00
  6.40121700e-01  1.61277800e-01  3.04752490e+03  4.57369510e+02  1.03948690e+02
  2.92101550e+01  9.28666300e+00  3.16392700e+00  7.86827240e+00  1.88128850e+00
  5.44249300e-01  7.86827240e+00  1.88128850e+00  5.44249300e-01  1.68714400e-01
  1.68714400e-01  8.00000000e-01  4.38000000e-02  4.38000000e-02  1.87311370e+01
  2.82539370e+00  6.40121700e-01  1.61277800e-01  1.87311370e+01  2.82539370e+00
  6.40121700e-01  1.61277800e-01  1.87311370e+01  2.82539370e+00  6.40121700e-01
  1.61277800e-01  1.87311370e+01  2.82539370e+00  6.40121700e-01  1.61277800e-01
  1.87311370e+01  2.82539370e+00  6.40121700e-01  1.61277800e-01
Contraction coefficients                   R   N=         289
  1.83470016e-03  1.40373012e-02  6.88426061e-02  2.32184421e-01  4.67941342e-01
  3.62312032e-01 -1.19332409e-01 -1.60854212e-01  1.14345648e+00  6.89990956e-02
  3.16423980e-01  7.44308252e-01  1.00000000e+00  1.00000000e+00  1.00000000e+00
  1.00000000e+00  1.00000000e+00  1.83470016e-03  1.40373012e-02  6.88426061e-02
  2.32184421e-01  4.67941342e-01  3.62312032e-01 -1.19332409e-01 -1.60854212e-01
  1.14345648e+00  6.89990956e-02  3.16423980e-01  7.44308252e-01  1.00000000e+00
  1.00000000e+00  1.00000000e+00  1.00000000e+00  1.00000000e+00  1.83479944e-03
  1.39949958e-02  6.85869792e-02  2.32240930e-01  4.69069858e-01  3.60454891e-01
 -1.14961023e-01 -1.69118034e-01  1.14585223e+00  6.75800232e-02  3.23907111e-01
  7.40895255e-01  1.00000000e+00  1.00000000e+00  1.00000000e+00  1.00000000e+00
  1.00000000e+00  1.83470016e-03  1.40373012e-02  6.88426061e-02  2.32184421e-01
  4.67941342e-01  3.62312032e-01 -1.19332409e-01 -1.60854212e-01  1.14345648e+00
  6.89990956e-02  3.16423980e-01  7.44308252e-01  1.00000000e+00  1.00000000e+00
  1.00000000e+00  1.00000000e+00  1.00000000e+00  1.83470016e-03  1.40373012e-02
  6.88426061e-02  2.32184421e-01  4.67941342e-01  3.62312032e-01 -1.19332409e-01
 -1.60854212e-01  1.14345648e+00  6.89990956e-02  3.16423980e-01  7.44308252e-01
  1.00000000e+00  1.00000000e+00  1.00000000e+00  1.00000000e+00  1.00000000e+00
  1.83470016e-03  1.40373012e-02  6.88426061e-02  2.32184421e-01  4.67941342e-01
  3.62312032e-01 -1.19332409e-01 -1.60854212e-01  1.14345648e+00  6.89990956e-02
  3.16423980e-01  7.44308252e-01  1.00000000e+00  1.00000000e+00  1.00000000e+00
  1.00000000e+00  1.00000000e+00  1.83109981e-03  1.39500985e-02  6.84450927e-02
  2.32714275e-01  4.70192950e-01  3.58520862e-01 -1.10777504e-01 -1.48026305e-01
  1.13076704e+00  7.08742995e-02  3.39752798e-01  7.27158595e-01  1.00000000e+00
  1.00000000e+00  1.00000000e+00  1.00000000e+00  1.00000000e+00  1.83109981e-03
  1.39500985e-02  6.84450927e-02  2.32714275e-01  4.70192950e-01  3.58520862e-01
 -1.10777504e-01 -1.48026305e-01  1.13076704e+00  7.08742995e-02  3.39752798e-01
  7.27158595e-01  1.00000000e+00  1.00000000e+00  1.00000000e+00  1.00000000e+00
  1.00000000e+00  3.34945995e-02  2.34726947e-01  8.13757318e-01  1.00000000e+00
  1.83470016e-03  1.40373012e-02  6.88426061e-02  2.32184421e-01  4.67941342e-01
  3.62312032e-01 -1.19332409e-01 -1.60854212e-01  1.14345648e+00  6.89990956e-02
  3.16423980e-01  7.44308252e-01  1.00000000e+00  1.00000000e+00  1.00000000e+00
  1.00000000e+00  1.00000000e+00  3.34945995e-02  2.34726947e-01  8.13757318e-01
  1.00000000e+00  3.34945995e-02  2.34726947e-01  8.13757318e-01  1.00000000e+00
  3.34945995e-02  2.34726947e-01  8.13757318e-01  1.00000000e+00  3.34945995e-02
  2.34726947e-01  8.13757318e-01  1.00000000e+00  3.34945995e-02  2.34726947e-01
  8.13757318e-01  1.00000000e+00  3.34945995e-02  2.34726947e-01  8.13757318e-01
  1.00000000e+00  1.83470016e-03  1.40373012e-02  6.88426061e-02  2.32184421e-01
  4.67941342e-01  3.62312032e-01 -1.19332409e-01 -1.60854212e-01  1.14345648e+00
  6.89990956e-02  3.16423980e-01  7.44308252e-01  1.00000000e+00  1.00000000e+00
  1.00000000e+00  1.00000000e+00  1.00000000e+00  1.83470016e-03  1.40373012e-02
  6.88426061e-02  2.32184421e-01  4.67941342e-01  3.62312032e-01 -1.19332409e-01
 -1.60854212e-01  1.14345648e+00  6.89990956e-02  3.16423980e-01  7.44308252e-01
  1.00000000e+00  1.00000000e+00  1.00000000e+00  1.00000000e+00  1.00000000e+00
  1.83470016e-03  1.40373012e-02  6.88426061e-02  2.32184421e-01  4.67941342e-01
  3.62312032e-01 -1.19332409e-01 -1.60854212e-01  1.14345648e+00  6.89990956e-02
  3.16423980e-01  7.44308252e-01  1.00000000e+00  1.00000000e+00  1.00000000e+00
  1.00000000e+00  1.00000000e+00  3.34945995e-02  2.34726947e-01  8.13757318e-01
  1.00000000e+00  3.34945995e-02  2.34726947e-01  8.13757318e-01  1.00000000e+00
  3.34945995e-02  2.34726947e-01  8.13757318e-01  1.00000000e+00  3.34945995e-02
  2.34726947e-01  8.13757318e-01  1.00000000e+00  3.34945995e-02  2.34726947e-01
  8.13757318e-01  1.00000000e+00  1.83470016e-03  1.40373012e-02  6.88426061e-02
  2.32184421e-01  4.67941342e-01  3.62312032e-01 -1.19332409e-01 -1.60854212e-01
  1.14345648e+00  6.89990956e-02  3.16423980e-01  7.44308252e-01  1.00000000e+00
  1.00000000e+00  1.00000000e+00  1.00000000e+00  1.00000000e+00  3.34945995e-02
  2.34726947e-01  8.13757318e-01  1.00000000e+00  3.34945995e-02  2.34726947e-01
  8.13757318e-01  1.00000000e+00  3.34945995e-02  2.34726947e-01  8.13757318e-01
  1.00000000e+00  3.34945995e-02  2.34726947e-01  8.13757318e-01  1.00000000e+00
  3.34945995e-02  2.34726947e-01  8.13757318e-01  1.00000000e+00
Coordinates of each shell                  R   N=         414
  3.00698050e-01 -4.00064178e+00  4.59242506e-01  3.00698050e-01 -4.00064178e+00
  4.59242506e-01  3.00698050e-01 -4.00064178e+00  4.59242506e-01  3.00698050e-01
 -4.00064178e+00  4.59242506e-01  3.00698050e-01 -4.00064178e+00  4.59242506e-01
  3.00698050e-01 -4.00064178e+00  4.59242506e-01  3.00698050e-01 -4.00064178e+00
  4.59242506e-01  3.00698050e-01 -4.00064178e+00  4.59242506e-01  2.52482496e+00
 -2.91746696e+00  1.97092324e+00  2.52482496e+00 -2.91746696e+00  1.97092324e+00
  2.52482496e+00 -2.91746696e+00  1.97092324e+00  2.52482496e+00 -2.91746696e+00
  1.97092324e+00  2.52482496e+00 -2.91746696e+00  1.97092324e+00  2.52482496e+00
 -2.91746696e+00  1.97092324e+00  2.52482496e+00 -2.91746696e+00  1.97092324e+00
  2.52482496e+00 -2.91746696e+00  1.97092324e+00  1.77850207e+00 -6.03012625e-01
  3.26051143e+00  1.77850207e+00 -6.03012625e-01  3.26051143e+00  1.77850207e+00
 -6.03012625e-01  3.26051143e+00  1.77850207e+00 -6.03012625e-01  3.26051143e+00
  1.77850207e+00 -6.03012625e-01  3.26051143e+00  1.77850207e+00 -6.03012625e-01
  3.26051143e+00  1.77850207e+00 -6.03012625e-01  3.26051143e+00  1.77850207e+00
 -6.03012625e-01  3.26051143e+00  1.22209282e-01  1.14512474e+00  2.31931389e+00
  1.22209282e-01  1.14512474e+00  2.31931389e+00  1.22209282e-01  1.14512474e+00
  2.31931389e+00  1.22209282e-01  1.14512474e+00  2.31931389e+00  1.22209282e-01
  1.14512474e+00  2.31931389e+00  1.22209282e-01  1.14512474e+00  2.31931389e+00
  1.22209282e-01  1.14512474e+00  2.31931389e+00  1.22209282e-01  1.14512474e+00
  2.31931389e+00 -6.22139370e-01  8.40967852e-01 -4.78947248e-01 -6.22139370e-01
  8.40967852e-01 -4.78947248e-01 -6.22139370e-01  8.40967852e-01 -4.78947248e-01
 -6.22139370e-01  8.40967852e-01 -4.78947248e-01 -6.22139370e-01  8.40967852e-01
 -4.78947248e-01 -6.22139370e-01  8.40967852e-01 -4.78947248e-01 -6.22139370e-01
  8.40967852e-01 -4.78947248e-01 -6.22139370e-01  8.40967852e-01 -4.78947248e-01
 -9.04004740e-01 -1.98048626e+00 -1.23268515e+00 -9.04004740e-01 -1.98048626e+00
 -1.23268515e+00 -9.04004740e-01 -1.98048626e+00 -1.23268515e+00 -9.04004740e-01
 -1.98048626e+00 -1.23268515e+00 -9.04004740e-01 -1.98048626e+00 -1.23268515e+00
 -9.04004740e-01 -1.98048626e+00 -1.23268515e+00 -9.04004740e-01 -1.98048626e+00
 -1.23268515e+00 -9.04004740e-01 -1.98048626e+00 -1.23268515e+00 -6.46423205e-01
  2.89398973e+00  3.63759394e+00 -6.46423205e-01  2.89398973e+00  3.63759394e+00
 -6.46423205e-01  2.89398973e+00  3.63759394e+00 -6.46423205e-01  2.89398973e+00
  3.63759394e+00 -6.46423205e-01  2.89398973e+00  3.63759394e+00 -6.46423205e-01
  2.89398973e+00  3.63759394e+00 -6.46423205e-01  2.89398973e+00  3.63759394e+00
 -6.46423205e-01  2.89398973e+00  3.63759394e+00 -2.02621818e+00 -2.57625346e+00
 -3.15070634e+00 -2.02621818e+00 -2.57625346e+00 -3.15070634e+00 -2.02621818e+00
 -2.57625346e+00 -3.15070634e+00 -2.02621818e+00 -2.57625346e+00 -3.15070634e+00
 -2.02621818e+00 -2.57625346e+00 -3.15070634e+00 -2.02621818e+00 -2.57625346e+00
 -3.15070634e+00 -2.02621818e+00 -2.57625346e+00 -3.15070634e+00 -2.02621818e+00
 -2.57625346e+00 -3.15070634e+00  2.26745889e+00 -3.38845316e-01  5.09314067e+00
  2.26745889e+00 -3.38845316e-01  5.09314067e+00  1.00380145e+00 -6.39448270e+00
 -1.00669347e+00  1.00380145e+00 -6.39448270e+00 -1.00669347e+00  1.00380145e+00
 -6.39448270e+00 -1.00669347e+00  1.00380145e+00 -6.39448270e+00 -1.00669347e+00
  1.00380145e+00 -6.39448270e+00 -1.00669347e+00  1.00380145e+00 -6.39448270e+00
 -1.00669347e+00  1.00380145e+00 -6.39448270e+00 -1.00669347e+00  1.00380145e+00
 -6.39448270e+00 -1.00669347e+00 -1.18770032e+00 -4.46809519e+00  1.84270056e+00
 -1.18770032e+00 -4.46809519e+00  1.84270056e+00  2.51173666e+00 -6.01421339e+00
 -2.37623278e+00  2.51173666e+00 -6.01421339e+00 -2.37623278e+00 -6.24849686e-01
 -7.11047338e+00 -2.05413147e+00 -6.24849686e-01 -7.11047338e+00 -2.05413147e+00
  1.66191175e+00 -7.87198536e+00  2.87732949e-01  1.66191175e+00 -7.87198536e+00
  2.87732949e-01  4.15483483e+00 -2.59206911e+00  7.22650997e-01  4.15483483e+00
 -2.59206911e+00  7.22650997e-01  3.12716129e+00 -4.28370118e+00  3.40209267e+00
  3.12716129e+00 -4.28370118e+00  3.40209267e+00  1.61453946e+00  1.80610732e+00
 -2.20707543e+00  1.61453946e+00  1.80610732e+00 -2.20707543e+00  1.61453946e+00
  1.80610732e+00 -2.20707543e+00  1.61453946e+00  1.80610732e+00 -2.20707543e+00
  1.61453946e+00  1.80610732e+00 -2.20707543e+00  1.61453946e+00  1.80610732e+00
 -2.20707543e+00  1.61453946e+00  1.80610732e+00 -2.20707543e+00  1.61453946e+00
  1.80610732e+00 -2.20707543e+00 -3.16548240e+00  2.20126976e+00 -1.04028460e+00
 -3.16548240e+00  2.20126976e+00 -1.04028460e+00 -3.16548240e+00  2.20126976e+00
 -1.04028460e+00 -3.16548240e+00  2.20126976e+00 -1.04028460e+00 -3.16548240e+00
  2.20126976e+00 -1.04028460e+00 -3.16548240e+00  2.20126976e+00 -1.04028460e+00
 -3.16548240e+00  2.20126976e+00 -1.04028460e+00 -3.16548240e+00  2.20126976e+00
 -1.04028460e+00 -3.16974430e+00  5.09488657e+00 -1.21695618e+00 -3.16974430e+00
  5.09488657e+00 -1.21695618e+00 -3.16974430e+00  5.09488657e+00 -1.21695618e+00
 -3.16974430e+00  5.09488657e+00 -1.21695618e+00 -3.16974430e+00  5.09488657e+00
 -1.21695618e+00 -3.16974430e+00  5.09488657e+00 -1.21695618e+00 -3.16974430e+00
  5.09488657e+00 -1.21695618e+00 -3.16974430e+00  5.09488657e+00 -1.21695618e+00
 -4.51693148e+00  1.62773841e+00  4.24407044e-01 -4.51693148e+00  1.62773841e+00
  4.24407044e-01 -3.85794923e+00  1.42028518e+00 -2.82593553e+00 -3.85794923e+00
  1.42028518e+00 -2.82593553e+00 -2.50067266e+00  5.97306279e+00  5.27267123e-01
 -2.50067266e+00  5.97306279e+00  5.27267123e-01 -5.10991073e+00  5.74064563e+00
 -1.55885601e+00 -5.10991073e+00  5.74064563e+00 -1.55885601e+00 -2.02179935e+00
  5.77879001e+00 -2.79991966e+00 -2.02179935e+00  5.77879001e+00 -2.79991966e+00
  3.09705531e+00  4.11483426e+00 -1.26462024e+00  3.09705531e+00  4.11483426e+00
 -1.26462024e+00  3.09705531e+00  4.11483426e+00 -1.26462024e+00  3.09705531e+00
  4.11483426e+00 -1.26462024e+00  3.09705531e+00  4.11483426e+00 -1.26462024e+00
  3.09705531e+00  4.11483426e+00 -1.26462024e+00  3.09705531e+00  4.11483426e+00
 -1.26462024e+00  3.09705531e+00  4.11483426e+00 -1.26462024e+00  7.86018413e-01
  2.18114183e+00 -4.06823641e+00  7.86018413e-01  2.18114183e+00 -4.06823641e+00
  2.96933400e+00  2.62609462e-01 -2.50599735e+00  2.96933400e+00  2.62609462e-01
 -2.50599735e+00  1.88392875e+00  5.74599114e+00 -9.11637586e-01  1.88392875e+00
  5.74599114e+00 -9.11637586e-01  4.50182460e+00  4.65273960e+00 -2.69067776e+00
  4.50182460e+00  4.65273960e+00 -2.69067776e+00  4.11484015e+00  3.70241369e+00
  4.90550061e-01  4.11484015e+00  3.70241369e+00  4.90550061e-01
Total Energy                               R     -5.965384354879118e+02
Alpha Orbital Energies                     R   N=         281
 -1.91608043e+01 -1.91278365e+01 -1.43774745e+01 -1.02992565e+01 -1.02929706e+01
 -1.02525990e+01 -1.02249311e+01 -1.02241659e+01 -1.02098864e+01 -1.01970384e+01
 -1.01849641e+01 -1.01845846e+01 -1.01685340e+01 -1.06137399e+00 -1.04584942e+00
 -9.44033789e-01 -8.29881985e-01 -8.14139658e-01 -7.54159205e-01 -7.26011214e-01
 -7.10996562e-01 -6.56964797e-01 -6.26929680e-01 -6.16683846e-01 -5.74079646e-01
 -5.42287470e-01 -5.23268496e-01 -5.09980046e-01 -4.80565345e-01 -4.70440272e-01
 -4.61924261e-01 -4.44274172e-01 -4.37271851e-01 -4.28165476e-01 -4.16211800e-01
 -4.11070592e-01 -4.05743362e-01 -3.97144252e-01 -3.90661195e-01 -3.78782482e-01
 -3.74197734e-01 -3.70638673e-01 -3.62027973e-01 -3.54598401e-01 -3.47948238e-01
 -3.36730708e-01 -3.21618083e-01 -2.68968149e-01 -2.65802007e-01 -2.54404139e-01
 -4.15828726e-02 -7.08208866e-03 -2.80773117e-03  7.63356560e-03  1.09407890e-02
  1.52912347e-02  2.94822122e-02  3.33179833e-02  3.89898522e-02  4.14690874e-02
  5.37273828e-02  6.10613846e-02  6.45743483e-02  6.73244761e-02  7.07735826e-02
  7.71406190e-02  8.50203287e-02  9.23427852e-02  9.56714551e-02  9.77436899e-02
  1.03651171e-01  1.10664440e-01  1.12319411e-01  1.14647281e-01  1.18680619e-01
  1.22038126e-01  1.37442403e-01  1.42160419e-01  1.46359969e-01  1.53455268e-01
  1.55710395e-01  1.61847637e-01  1.65162913e-01  1.66378107e-01  1.75077233e-01
  1.78523422e-01  1.86753899e-01  1.88647944e-01  1.95441350e-01  1.98462770e-01
  2.01975925e-01  2.07381692e-01  2.10484796e-01  2.20133977e-01  2.23724485e-01
  2.29664061e-01  2.32866948e-01  2.34913668e-01  2.40785052e-01  2.43661876e-01
  2.50694667e-01  2.54068272e-01  2.56473305e-01  2.63156625e-01  2.67810697e-01
  2.70490191e-01  2.82559468e-01  2.85187278e-01  2.88462650e-01  2.91484302e-01
  3.00028723e-01  3.10262681e-01  3.15370532e-01  3.26845277e-01  3.30528234e-01
  3.37617598e-01  3.50114979e-01  3.54708937e-01  3.56664103e-01  3.60912904e-01
  3.66661836e-01  3.77058538e-01  3.84735233e-01  3.90033548e-01  4.00770913e-01
  4.05802154e-01  4.19454948e-01  4.32916944e-01  4.42113085e-01  4.69214612e-01
  4.81895095e-01  4.88923124e-01  5.02607829e-01  5.34420842e-01  6.22655622e-01
  6.46819861e-01  6.56950506e-01  6.68509112e-01  6.81632610e-01  6.84140643e-01
  7.05314461e-01  7.11360744e-01  7.18300030e-01  7.21367959e-01  7.37443629e-01
  7.42146303e-01  7.51972995e-01  7.53946656e-01  7.64996338e-01  7.75850801e-01
  7.92137344e-01  8.10368884e-01  8.34107979e-01  8.50361637e-01  8.63188240e-01
  8.67615883e-01  9.02846237e-01  9.13435683e-01  9.23769689e-01  9.33312462e-01
  9.43358404e-01  9.63601175e-01  9.78308919e-01  9.92196408e-01  9.96981632e-01
  1.00510316e+00  1.01526489e+00  1.01927838e+00  1.02429612e+00  1.02822826e+00
  1.04401448e+00  1.05962553e+00  1.07526360e+00  1.09276676e+00  1.10649521e+00
  1.12156443e+00  1.13811110e+00  1.15200617e+00  1.15965424e+00  1.16426288e+00
  1.18686001e+00  1.19775721e+00  1.22093426e+00  1.23093724e+00  1.26450713e+00
  1.27017282e+00  1.29797886e+00  1.30822367e+00  1.32978542e+00  1.35471223e+00
  1.37029987e+00  1.37881148e+00  1.38394105e+00  1.41142907e+00  1.42665416e+00
  1.43538394e+00  1.45334134e+00  1.47163089e+00  1.49582822e+00  1.51729156e+00
  1.55231167e+00  1.58621451e+00  1.60163310e+00  1.64395752e+00  1.65522338e+00
  1.68221193e+00  1.69912726e+00  1.71567731e+00  1.74302363e+00  1.75110846e+00
  1.75920579e+00  1.77931661e+00  1.80074637e+00  1.82801948e+00  1.85990401e+00
  1.86605285e+00  1.89523694e+00  1.89767970e+00  1.92507285e+00  1.92667492e+00
  1.95877736e+00  1.97212378e+00  1.98238310e+00  2.00149079e+00  2.01009781e+00
  2.01539333e+00  2.02444894e+00  2.02843779e+00  2.04766328e+00  2.06446015e+00
  2.08591269e+00  2.12283311e+00  2.12813665e+00  2.14165993e+00  2.15296314e+00
  2.19659501e+00  2.21387019e+00  2.24944021e+00  2.29073153e+00  2.31577856e+00