Generated by Psi4
     FORCE                           RHF                       TESTBAS
Number of atoms                            I               32
Charge                                     I                0
Multiplicity                               I                1
Number of electrons                        I              130
Number of alpha electrons                  I               65
Number of beta electrons                   I               65
Number of basis functions                  I              370
Number of independent functions            I              370
Atomic numbers                             I   N=          32
           8           6           6           6           7           6
           7           6           8           8           1           6
           6           6           1           1           6           1
           1           1           1           1           1           6
           6           6           6           1           1           1
           1           1
Nuclear charges                            R   N=          32
  8.00000000e+00  6.00000000e+00  6.00000000e+00  6.00000000e+00  7.00000000e+00
  6.00000000e+00  7.00000000e+00  6.00000000e+00  8.00000000e+00  8.00000000e+00
  1.00000000e+00  6.00000000e+00  6.00000000e+00  6.00000000e+00  1.00000000e+00
  1.00000000e+00  6.00000000e+00  1.00000000e+00  1.00000000e+00  1.00000000e+00
  1.00000000e+00  1.00000000e+00  1.00000000e+00  6.00000000e+00  6.00000000e+00
  6.00000000e+00  6.00000000e+00  1.00000000e+00  1.00000000e+00  1.00000000e+00
  1.00000000e+00  1.00000000e+00
Current cartesian coordinates              R   N=          96
  4.27763432e+00 -2.96067131e+00 -3.59353244e-01 -4.16867321e-01 -3.26222487e+00
 -3.03049199e+00  1.36206267e-01 -1.13101492e+00 -1.08263290e+00  2.96588816e+00
 -1.07325835e+00 -4.98813308e-01  3.98515795e+00  1.28304441e+00 -1.61882381e-03
  2.87217900e+00  3.64319499e+00 -3.32065200e-01  4.49799941e-01  3.61946349e+00
 -1.37011740e+00 -8.19134148e-01  1.42429955e+00 -2.10112397e+00  4.00964882e+00
  5.57178911e+00  2.04353074e-01 -2.72245270e+00  1.58045543e+00 -3.39202840e+00
  5.82280911e+00  1.33387968e+00  5.51195913e-01  9.07197242e-01 -2.95760402e+00
 -5.58961653e+00 -1.34134408e+00 -1.66503092e+00  1.41054448e+00 -3.98085389e+00
 -1.37887750e+00  1.44388416e+00 -2.46337898e+00 -3.32718989e+00 -3.30374788e+00
  1.54113862e-01 -5.04126621e+00 -2.14551723e+00 -7.21566649e-01  6.05668397e+00
 -2.01828632e+00  3.26803358e-01  7.53906714e+00 -1.05337594e+00 -2.69121979e+00
  6.03530526e+00 -1.40972608e+00 -6.59347804e-01  6.35814467e+00 -4.06185852e+00
  3.29370117e-01 -1.21590191e+00 -6.54831442e+00  4.02822525e-01 -4.54014307e+00
 -6.82676496e+00  2.96815694e+00 -2.96243389e+00 -5.39392031e+00 -1.34462407e-01
 -2.52550034e+00  3.60823687e+00 -1.52956384e+00 -3.06896837e+00  5.78551610e+00
 -4.14902751e+00 -2.77042458e+00  5.80466563e+00 -5.36794349e+00 -1.92834103e+00
  3.61939133e+00 -4.95979764e+00 -7.21972692e-01 -2.34266947e-01  1.89343488e+00
 -2.82195298e+00  3.64154736e+00 -5.51331283e-01 -3.73504282e+00  7.46427581e+00
 -5.23007868e+00 -3.19437965e+00  7.49866252e+00 -7.40845842e+00 -1.69285718e+00
  3.59860012e+00
Integer atomic weights                     I   N=          32
          15          12          12          12          14          12
          14          12          15          15           1          12
          12          12           1           1          12           1
           1           1           1           1           1          12
          12          12          12           1           1           1
           1           1
Real atomic weights                        R   N=          32
  1.59949146e+01  1.20000000e+01  1.20000000e+01  1.20000000e+01  1.40030740e+01
  1.20000000e+01  1.40030740e+01  1.20000000e+01  1.59949146e+01  1.59949146e+01
  1.00782503e+00  1.20000000e+01  1.20000000e+01  1.20000000e+01  1.00782503e+00
  1.00782503e+00  1.20000000e+01  1.00782503e+00  1.00782503e+00  1.00782503e+00
  1.00782503e+00  1.00782503e+00  1.00782503e+00  1.20000000e+01  1.20000000e+01
  1.20000000e+01  1.20000000e+01  1.00782503e+00  1.00782503e+00  1.00782503e+00
  1.00782503e+00  1.00782503e+00
Number of primitive shells                 I              362
Number of contracted shells                I              172
Pure/Cartesian d shells                    I                1
Pure/Cartesian f shells                    I                1
Highest angular momentum                   I                2
Largest degree of contraction              I                6
Shell types                                I   N=         172
           0           0           1           0           1           2
           0           1           0           0           1           0
           1           2           0           1           0           0
           1           0           1           2           0           1
           0           0           1           0           1           2
           0           1           0           0           1           0
           1           2           0           1           0           0
           1           0           1           2           0           1
           0           0           1           0           1           2
           0           1           0           0           1           0
           1           2           0           1           0           0
           1           0           1           2           0           1
           0           0           1           0           1           2
           0           1           0           0           0           0
           1           0           1           2           0           1
           0           0           1           0           1           2
           0           1           0           0           1           0
           1           2           0           1           0           0
           0           0           0           0           1           0
           1           2           0           1           0           0
           0           0           0           0           0           0
           0           0           0           0           0           0
           1           0           1           2           0           1
           0           0           1           0           1           2
           0           1           0           0           1           0
           1           2           0           1           0           0
           1           0           1           2           0           1
           0           0           0           0           0           0
           0           0           0           0
Number of primitives per shell             I   N=         172
           6           3           3           1           1           1
           1           1           6           3           3           1
           1           1           1           1           6           3
           3           1           1           1           1           1
           6           3           3           1           1           1
           1           1           6           3           3           1
           1           1           1           1           6           3
           3           1           1           1           1           1
           6           3           3           1           1           1
           1           1           6           3           3           1
           1           1           1           1           6           3
           3           1           1           1           1           1
           6           3           3           1           1           1
           1           1           3           1           6           3
           3           1           1           1           1           1
           6           3           3           1           1           1
           1           1           6           3           3           1
           1           1           1           1           3           1
           3           1           6           3           3           1
           1           1           1           1           3           1
           3           1           3           1           3           1
           3           1           3           1           6           3
           3           1           1           1           1           1
           6           3           3           1           1           1
           1           1           6           3           3           1
           1           1           1           1           6           3
           3           1           1           1           1           1
           3           1           3           1           3           1
           3           1           3           1
Shell to atom map                          I   N=         172
           1           1           1           1           1           1
           1           1           2           2           2           2
           2           2           2           2           3           3
           3           3           3           3           3           3
           4           4           4           4           4           4
           4           4           5           5           5           5
           5           5           5           5           6           6
           6           6           6           6           6           6
           7           7           7           7           7           7
           7           7           8           8           8           8
           8           8           8           8           9           9
           9           9           9           9           9           9
          10          10          10          10          10          10
          10          10          11          11          12          12
          12          12          12          12          12          12
          13          13          13          13          13          13
          13          13          14          14          14          14
          14          14          14          14          15          15
          16          16          17          17          17          17
          17          17          17          17          18          18
          19          19          20          20          21          21
          22          22          23          23          24          24
          24          24          24          24          24          24
          25          25          25          25          25          25
          25          25          26          26          26          26
          26          26          26          26          27          27
          27          27          27          27          27          27
          28          28          29          29          30          30
          31          31          32          32
Primitive exponents                        R   N=         362
  5.48467170e+03  8.25234950e+02  1.88046960e+02  5.29645000e+01  1.68975700e+01
  5.79963530e+00  1.55396160e+01  3.59993360e+00  1.01376180e+00  1.55396160e+01
  3.59993360e+00  1.01376180e+00  2.70005800e-01  2.70005800e-01  8.00000000e-01
  8.45000000e-02  8.45000000e-02  3.04752490e+03  4.57369510e+02  1.03948690e+02
  2.92101550e+01  9.28666300e+00  3.16392700e+00  7.86827240e+00  1.88128850e+00
  5.44249300e-01  7.86827240e+00  1.88128850e+00  5.44249300e-01  1.68714400e-01
  1.68714400e-01  8.00000000e-01  4.38000000e-02  4.38000000e-02  3.04752490e+03
  4.57369510e+02  1.03948690e+02  2.92101550e+01  9.28666300e+00  3.16392700e+00
  7.86827240e+00  1.88128850e+00  5.44249300e-01  7.86827240e+00  1.88128850e+00
  5.44249300e-01  1.68714400e-01  1.68714400e-01  8.00000000e-01  4.38000000e-02
  4.38000000e-02  3.04752490e+03  4.57369510e+02  1.03948690e+02  2.92101550e+01
  9.28666300e+00  3.16392700e+00  7.86827240e+00  1.88128850e+00  5.44249300e-01
  7.86827240e+00  1.88128850e+00  5.44249300e-01  1.68714400e-01  1.68714400e-01
  8.00000000e-01  4.38000000e-02  4.38000000e-02  4.17351100e+03  6.27457900e+02
  1.42902100e+02  4.02343300e+01  1.28202100e+01  4.39043700e+00  1.16263580e+01
  2.71628000e+00  7.72218000e-01  1.16263580e+01  2.71628000e+00  7.72218000e-01
  2.12031300e-01  2.12031300e-01  8.00000000e-01  6.39000000e-02  6.39000000e-02
  3.04752490e+03  4.57369510e+02  1.03948690e+02  2.92101550e+01  9.28666300e+00
  3.16392700e+00  7.86827240e+00  1.88128850e+00  5.44249300e-01  7.86827240e+00
  1.88128850e+00  5.44249300e-01  1.68714400e-01  1.68714400e-01  8.00000000e-01
  4.38000000e-02  4.38000000e-02  4.17351100e+03  6.27457900e+02  1.42902100e+02
  4.02343300e+01  1.28202100e+01  4.39043700e+00  1.16263580e+01  2.71628000e+00
  7.72218000e-01  1.16263580e+01  2.71628000e+00  7.72218000e-01  2.12031300e-01
  2.12031300e-01  8.00000000e-01  6.39000000e-02  6.39000000e-02  3.04752490e+03
  4.57369510e+02  1.03948690e+02  2.92101550e+01  9.28666300e+00  3.16392700e+00
  7.86827240e+00  1.88128850e+00  5.44249300e-01  7.86827240e+00  1.88128850e+00
  5.44249300e-01  1.68714400e-01  1.68714400e-01  8.00000000e-01  4.38000000e-02
  4.38000000e-02  5.48467170e+03  8.25234950e+02  1.88046960e+02  5.29645000e+01
  1.68975700e+01  5.79963530e+00  1.55396160e+01  3.59993360e+00  1.01376180e+00
  1.55396160e+01  3.59993360e+00  1.01376180e+00  2.70005800e-01  2.70005800e-01
  8.00000000e-01  8.45000000e-02  8.45000000e-02  5.48467170e+03  8.25234950e+02
  1.88046960e+02  5.29645000e+01  1.68975700e+01  5.79963530e+00  1.55396160e+01
  3.59993360e+00  1.01376180e+00  1.55396160e+01  3.59993360e+00  1.01376180e+00
  2.70005800e-01  2.70005800e-01  8.00000000e-01  8.45000000e-02  8.45000000e-02
  1.87311370e+01  2.82539370e+00  6.40121700e-01  1.61277800e-01  3.04752490e+03
  4.57369510e+02  1.03948690e+02  2.92101550e+01  9.28666300e+00  3.16392700e+00
  7.86827240e+00  1.88128850e+00  5.44249300e-01  7.86827240e+00  1.88128850e+00
  5.44249300e-01  1.68714400e-01  1.68714400e-01  8.00000000e-01  4.38000000e-02
  4.38000000e-02  3.04752490e+03  4.57369510e+02  1.03948690e+02  2.92101550e+01
  9.28666300e+00  3.16392700e+00  7.86827240e+00  1.88128850e+00  5.44249300e-01
  7.86827240e+00  1.88128850e+00  5.44249300e-01  1.68714400e-01  1.68714400e-01
  8.00000000e-01  4.38000000e-02  4.38000000e-02  3.04752490e+03  4.57369510e+02
  1.03948690e+02  2.92101550e+01  9.28666300e+00  3.16392700e+00  7.86827240e+00
  1.88128850e+00  5.44249300e-01  7.86827240e+00  1.88128850e+00  5.44249300e-01
  1.68714400e-01  1.68714400e-01  8.00000000e-01  4.38000000e-02  4.38000000e-02
  1.87311370e+01  2.82539370e+00  6.40121700e-01  1.61277800e-01  1.87311370e+01
  2.82539370e+00  6.40121700e-01  1.61277800e-01  3.04752490e+03  4.57369510e+02
  1.03948690e+02  2.92101550e+01  9.28666300e+00  3.16392700e+00  7.86827240e+00
  1.88128850e+00  5.44249300e-01  7.86827240e+00  1.88128850e+00  5.44249300e-01
  1.68714400e-01  1.68714400e-01  8.00000000e-01  4.38000000e-02  4.38000000e-02
  1.87311370e+01  2.82539370e+00  6.40121700e-01  1.61277800e-01  1.87311370e+01
  2.82539370e+00  6.40121700e-01  1.61277800e-01  1.87311370e+01  2.82539370e+00
  6.40121700e-01  1.61277800e-01  1.87311370e+01  2.82539370e+00  6.40121700e-01
  1.61277800e-01  1.87311370e+01  2.82539370e+00  6.40121700e-01  1.61277800e-01
  1.87311370e+01  2.82539370e+00  6.40121700e-01  1.61277800e-01  3.04752490e+03
  4.57369510e+02  1.03948690e+02  2.92101550e+01  9.28666300e+00  3.16392700e+00
  7.86827240e+00  1.88128850e+00  5.44249300e-01  7.86827240e+00  1.88128850e+00
  5.44249300e-01  1.68714400e-01  1.68714400e-01  8.00000000e-01  4.38000000e-02
  4.38000000e-02  3.04752490e+03  4.57369510e+02  1.03948690e+02  2.92101550e+01
  9.28666300e+00  3.16392700e+00  7.86827240e+00  1.88128850e+00  5.44249300e-01
  7.86827240e+00  1.88128850e+00  5.44249300e-01  1.68714400e-01  1.68714400e-01
  8.00000000e-01  4.38000000e-02  4.38000000e-02  3.04752490e+03  4.57369510e+02
  1.03948690e+02  2.92101550e+01  9.28666300e+00  3.16392700e+00  7.86827240e+00
  1.88128850e+00  5.44249300e-01  7.86827240e+00  1.88128850e+00  5.44249300e-01
  1.68714400e-01  1.68714400e-01  8.00000000e-01  4.38000000e-02  4.38000000e-02
  3.04752490e+03  4.57369510e+02  1.03948690e+02  2.92101550e+01  9.28666300e+00
  3.16392700e+00  7.86827240e+00  1.88128850e+00  5.44249300e-01  7.86827240e+00
  1.88128850e+00  5.44249300e-01  1.68714400e-01  1.68714400e-01  8.00000000e-01
  4.38000000e-02  4.38000000e-02  1.87311370e+01  2.82539370e+00  6.40121700e-01
  1.61277800e-01  1.87311370e+01  2.82539370e+00  6.40121700e-01  1.61277800e-01
  1.87311370e+01  2.82539370e+00  6.40121700e-01  1.61277800e-01  1.87311370e+01
  2.82539370e+00  6.40121700e-01  1.61277800e-01  1.87311370e+01  2.82539370e+00
  6.40121700e-01  1.61277800e-01
Contraction coefficients                   R   N=         362
  1.83109981e-03  1.39500985e-02  6.84450927e-02  2.32714275e-01  4.70192950e-01
  3.58520862e-01 -1.10777504e-01 -1.48026305e-01  1.13076704e+00  7.08742995e-02
  3.39752798e-01  7.27158595e-01  1.00000000e+00  1.00000000e+00  1.00000000e+00
  1.00000000e+00  1.00000000e+00  1.83470016e-03  1.40373012e-02  6.88426061e-02
  2.32184421e-01  4.67941342e-01  3.62312032e-01 -1.19332409e-01 -1.60854212e-01
  1.14345648e+00  6.89990956e-02  3.16423980e-01  7.44308252e-01  1.00000000e+00
  1.00000000e+00  1.00000000e+00  1.00000000e+00  1.00000000e+00  1.83470016e-03
  1.40373012e-02  6.88426061e-02  2.32184421e-01  4.67941342e-01  3.62312032e-01
 -1.19332409e-01 -1.60854212e-01  1.14345648e+00  6.89990956e-02  3.16423980e-01
  7.44308252e-01  1.00000000e+00  1.00000000e+00  1.00000000e+00  1.00000000e+00
  1.00000000e+00  1.83470016e-03  1.40373012e-02  6.88426061e-02  2.32184421e-01
  4.67941342e-01  3.62312032e-01 -1.19332409e-01 -1.60854212e-01  1.14345648e+00
  6.89990956e-02  3.16423980e-01  7.44308252e-01  1.00000000e+00  1.00000000e+00
  1.00000000e+00  1.00000000e+00  1.00000000e+00  1.83479944e-03  1.39949958e-02
  6.85869792e-02  2.32240930e-01  4.69069858e-01  3.60454891e-01 -1.14961023e-01
 -1.69118034e-01  1.14585223e+00  6.75800232e-02  3.23907111e-01  7.40895255e-01
  1.00000000e+00  1.00000000e+00  1.00000000e+00  1.00000000e+00  1.00000000e+00
  1.83470016e-03  1.40373012e-02  6.88426061e-02  2.32184421e-01  4.67941342e-01
  3.62312032e-01 -1.19332409e-01 -1.60854212e-01  1.14345648e+00  6.89990956e-02
  3.16423980e-01  7.44308252e-01  1.00000000e+00  1.00000000e+00  1.00000000e+00
  1.00000000e+00  1.00000000e+00  1.83479944e-03  1.39949958e-02  6.85869792e-02
  2.32240930e-01  4.69069858e-01  3.60454891e-01 -1.14961023e-01 -1.69118034e-01
  1.14585223e+00  6.75800232e-02  3.23907111e-01  7.40895255e-01  1.00000000e+00
  1.00000000e+00  1.00000000e+00  1.00000000e+00  1.00000000e+00  1.83470016e-03
  1.40373012e-02  6.88426061e-02  2.32184421e-01  4.67941342e-01  3.62312032e-01
 -1.19332409e-01 -1.60854212e-01  1.14345648e+00  6.89990956e-02  3.16423980e-01
  7.44308252e-01  1.00000000e+00  1.00000000e+00  1.00000000e+00  1.00000000e+00
  1.00000000e+00  1.83109981e-03  1.39500985e-02  6.84450927e-02  2.32714275e-01
  4.70192950e-01  3.58520862e-01 -1.10777504e-01 -1.48026305e-01  1.13076704e+00
  7.08742995e-02  3.39752798e-01  7.27158595e-01  1.00000000e+00  1.00000000e+00
  1.00000000e+00  1.00000000e+00  1.00000000e+00  1.83109981e-03  1.39500985e-02
  6.84450927e-02  2.32714275e-01  4.70192950e-01  3.58520862e-01 -1.10777504e-01
 -1.48026305e-01  1.13076704e+00  7.08742995e-02  3.39752798e-01  7.27158595e-01
  1.00000000e+00  1.00000000e+00  1.00000000e+00  1.00000000e+00  1.00000000e+00
  3.34945995e-02  2.34726947e-01  8.13757318e-01  1.00000000e+00  1.83470016e-03
  1.40373012e-02  6.88426061e-02  2.32184421e-01  4.67941342e-01  3.62312032e-01
 -1.19332409e-01 -1.60854212e-01  1.14345648e+00  6.89990956e-02  3.16423980e-01
  7.44308252e-01  1.00000000e+00  1.00000000e+00  1.00000000e+00  1.00000000e+00
  1.00000000e+00  1.83470016e-03  1.40373012e-02  6.88426061e-02  2.32184421e-01
  4.67941342e-01  3.62312032e-01 -1.19332409e-01 -1.60854212e-01  1.14345648e+00
  6.89990956e-02  3.16423980e-01  7.44308252e-01  1.00000000e+00  1.00000000e+00
  1.00000000e+00  1.00000000e+00  1.00000000e+00  1.83470016e-03  1.40373012e-02
  6.88426061e-02  2.32184421e-01  4.67941342e-01  3.62312032e-01 -1.19332409e-01
 -1.60854212e-01  1.14345648e+00  6.89990956e-02  3.16423980e-01  7.44308252e-01
  1.00000000e+00  1.00000000e+00  1.00000000e+00  1.00000000e+00  1.00000000e+00
  3.34945995e-02  2.34726947e-01  8.13757318e-01  1.00000000e+00  3.34945995e-02
  2.34726947e-01  8.13757318e-01  1.00000000e+00  1.83470016e-03  1.40373012e-02
  6.88426061e-02  2.32184421e-01  4.67941342e-01  3.62312032e-01 -1.19332409e-01
 -1.60854212e-01  1.14345648e+00  6.89990956e-02  3.16423980e-01  7.44308252e-01
  1.00000000e+00  1.00000000e+00  1.00000000e+00  1.00000000e+00  1.00000000e+00
  3.34945995e-02  2.34726947e-01  8.13757318e-01  1.00000000e+00  3.34945995e-02
  2.34726947e-01  8.13757318e-01  1.00000000e+00  3.34945995e-02  2.34726947e-01
  8.13757318e-01  1.00000000e+00  3.34945995e-02  2.34726947e-01  8.13757318e-01
  1.00000000e+00  3.34945995e-02  2.34726947e-01  8.13757318e-01  1.00000000e+00
  3.34945995e-02  2.34726947e-01  8.13757318e-01  1.00000000e+00  1.83470016e-03
  1.40373012e-02  6.88426061e-02  2.32184421e-01  4.67941342e-01  3.62312032e-01
 -1.19332409e-01 -1.60854212e-01  1.14345648e+00  6.89990956e-02  3.16423980e-01
  7.44308252e-01  1.00000000e+00  1.00000000e+00  1.00000000e+00  1.00000000e+00
  1.00000000e+00  1.83470016e-03  1.40373012e-02  6.88426061e-02  2.32184421e-01
  4.67941342e-01  3.62312032e-01 -1.19332409e-01 -1.60854212e-01  1.14345648e+00
  6.89990956e-02  3.16423980e-01  7.44308252e-01  1.00000000e+00  1.00000000e+00
  1.00000000e+00  1.00000000e+00  1.00000000e+00  1.83470016e-03  1.40373012e-02
  6.88426061e-02  2.32184421e-01  4.67941342e-01  3.62312032e-01 -1.19332409e-01
 -1.60854212e-01  1.14345648e+00  6.89990956e-02  3.16423980e-01  7.44308252e-01
  1.00000000e+00  1.00000000e+00  1.00000000e+00  1.00000000e+00  1.00000000e+00
  1.83470016e-03  1.40373012e-02  6.88426061e-02  2.32184421e-01  4.67941342e-01
  3.62312032e-01 -1.19332409e-01 -1.60854212e-01  1.14345648e+00  6.89990956e-02
  3.16423980e-01  7.44308252e-01  1.00000000e+00  1.00000000e+00  1.00000000e+00
  1.00000000e+00  1.00000000e+00  3.34945995e-02  2.34726947e-01  8.13757318e-01
  1.00000000e+00  3.34945995e-02  2.34726947e-01  8.13757318e-01  1.00000000e+00
  3.34945995e-02  2.34726947e-01  8.13757318e-01  1.00000000e+00  3.34945995e-02
  2.34726947e-01  8.13757318e-01  1.00000000e+00  3.34945995e-02  2.34726947e-01
  8.13757318e-01  1.00000000e+00
Coordinates of each shell                  R   N=         516
  4.27763432e+00 -2.96067131e+00 -3.59353244e-01  4.27763432e+00 -2.96067131e+00
 -3.59353244e-01  4.27763432e+00 -2.96067131e+00 -3.59353244e-01  4.27763432e+00
 -2.96067131e+00 -3.59353244e-01  4.27763432e+00 -2.96067131e+00 -3.59353244e-01
  4.27763432e+00 -2.96067131e+00 -3.59353244e-01  4.27763432e+00 -2.96067131e+00
 -3.59353244e-01  4.27763432e+00 -2.96067131e+00 -3.59353244e-01 -4.16867321e-01
 -3.26222487e+00 -3.03049199e+00 -4.16867321e-01 -3.26222487e+00 -3.03049199e+00
 -4.16867321e-01 -3.26222487e+00 -3.03049199e+00 -4.16867321e-01 -3.26222487e+00
 -3.03049199e+00 -4.16867321e-01 -3.26222487e+00 -3.03049199e+00 -4.16867321e-01
 -3.26222487e+00 -3.03049199e+00 -4.16867321e-01 -3.26222487e+00 -3.03049199e+00
 -4.16867321e-01 -3.26222487e+00 -3.03049199e+00  1.36206267e-01 -1.13101492e+00
 -1.08263290e+00  1.36206267e-01 -1.13101492e+00 -1.08263290e+00  1.36206267e-01
 -1.13101492e+00 -1.08263290e+00  1.36206267e-01 -1.13101492e+00 -1.08263290e+00
  1.36206267e-01 -1.13101492e+00 -1.08263290e+00  1.36206267e-01 -1.13101492e+00
 -1.08263290e+00  1.36206267e-01 -1.13101492e+00 -1.08263290e+00  1.36206267e-01
 -1.13101492e+00 -1.08263290e+00  2.96588816e+00 -1.07325835e+00 -4.98813308e-01
  2.96588816e+00 -1.07325835e+00 -4.98813308e-01  2.96588816e+00 -1.07325835e+00
 -4.98813308e-01  2.96588816e+00 -1.07325835e+00 -4.98813308e-01  2.96588816e+00
 -1.07325835e+00 -4.98813308e-01  2.96588816e+00 -1.07325835e+00 -4.98813308e-01
  2.96588816e+00 -1.07325835e+00 -4.98813308e-01  2.96588816e+00 -1.07325835e+00
 -4.98813308e-01  3.98515795e+00  1.28304441e+00 -1.61882381e-03  3.98515795e+00
  1.28304441e+00 -1.61882381e-03  3.98515795e+00  1.28304441e+00 -1.61882381e-03
  3.98515795e+00  1.28304441e+00 -1.61882381e-03  3.98515795e+00  1.28304441e+00
 -1.61882381e-03  3.98515795e+00  1.28304441e+00 -1.61882381e-03  3.98515795e+00
  1.28304441e+00 -1.61882381e-03  3.98515795e+00  1.28304441e+00 -1.61882381e-03
  2.87217900e+00  3.64319499e+00 -3.32065200e-01  2.87217900e+00  3.64319499e+00
 -3.32065200e-01  2.87217900e+00  3.64319499e+00 -3.32065200e-01  2.87217900e+00
  3.64319499e+00 -3.32065200e-01  2.87217900e+00  3.64319499e+00 -3.32065200e-01
  2.87217900e+00  3.64319499e+00 -3.32065200e-01  2.87217900e+00  3.64319499e+00
 -3.32065200e-01  2.87217900e+00  3.64319499e+00 -3.32065200e-01  4.49799941e-01
  3.61946349e+00 -1.37011740e+00  4.49799941e-01  3.61946349e+00 -1.37011740e+00
  4.49799941e-01  3.61946349e+00 -1.37011740e+00  4.49799941e-01  3.61946349e+00
 -1.37011740e+00  4.49799941e-01  3.61946349e+00 -1.37011740e+00  4.49799941e-01
  3.61946349e+00 -1.37011740e+00  4.49799941e-01  3.61946349e+00 -1.37011740e+00
  4.49799941e-01  3.61946349e+00 -1.37011740e+00 -8.19134148e-01  1.42429955e+00
 -2.10112397e+00 -8.19134148e-01  1.42429955e+00 -2.10112397e+00 -8.19134148e-01
  1.42429955e+00 -2.10112397e+00 -8.19134148e-01  1.42429955e+00 -2.10112397e+00
 -8.19134148e-01  1.42429955e+00 -2.10112397e+00 -8.19134148e-01  1.42429955e+00
 -2.10112397e+00 -8.19134148e-01  1.42429955e+00 -2.10112397e+00 -8.19134148e-01
  1.42429955e+00 -2.10112397e+00  4.00964882e+00  5.57178911e+00  2.04353074e-01
  4.00964882e+00  5.57178911e+00  2.04353074e-01  4.00964882e+00  5.57178911e+00
  2.04353074e-01  4.00964882e+00  5.57178911e+00  2.04353074e-01  4.00964882e+00
  5.57178911e+00  2.04353074e-01  4.00964882e+00  5.57178911e+00  2.04353074e-01
  4.00964882e+00  5.57178911e+00  2.04353074e-01  4.00964882e+00  5.57178911e+00
  2.04353074e-01 -2.72245270e+00  1.58045543e+00 -3.39202840e+00 -2.72245270e+00
  1.58045543e+00 -3.39202840e+00 -2.72245270e+00  1.58045543e+00 -3.39202840e+00
 -2.72245270e+00  1.58045543e+00 -3.39202840e+00 -2.72245270e+00  1.58045543e+00
 -3.39202840e+00 -2.72245270e+00  1.58045543e+00 -3.39202840e+00 -2.72245270e+00
  1.58045543e+00 -3.39202840e+00 -2.72245270e+00  1.58045543e+00 -3.39202840e+00
  5.82280911e+00  1.33387968e+00  5.51195913e-01  5.82280911e+00  1.33387968e+00
  5.51195913e-01  9.07197242e-01 -2.95760402e+00 -5.58961653e+00  9.07197242e-01
 -2.95760402e+00 -5.58961653e+00  9.07197242e-01 -2.95760402e+00 -5.58961653e+00
  9.07197242e-01 -2.95760402e+00 -5.58961653e+00  9.07197242e-01 -2.95760402e+00
 -5.58961653e+00  9.07197242e-01 -2.95760402e+00 -5.58961653e+00  9.07197242e-01
 -2.95760402e+00 -5.58961653e+00  9.07197242e-01 -2.95760402e+00 -5.58961653e+00
 -1.34134408e+00 -1.66503092e+00  1.41054448e+00 -1.34134408e+00 -1.66503092e+00
  1.41054448e+00 -1.34134408e+00 -1.66503092e+00  1.41054448e+00 -1.34134408e+00
 -1.66503092e+00  1.41054448e+00 -1.34134408e+00 -1.66503092e+00  1.41054448e+00
 -1.34134408e+00 -1.66503092e+00  1.41054448e+00 -1.34134408e+00 -1.66503092e+00
  1.41054448e+00 -1.34134408e+00 -1.66503092e+00  1.41054448e+00 -3.98085389e+00
 -1.37887750e+00  1.44388416e+00 -3.98085389e+00 -1.37887750e+00  1.44388416e+00
 -3.98085389e+00 -1.37887750e+00  1.44388416e+00 -3.98085389e+00 -1.37887750e+00
  1.44388416e+00 -3.98085389e+00 -1.37887750e+00  1.44388416e+00 -3.98085389e+00
 -1.37887750e+00  1.44388416e+00 -3.98085389e+00 -1.37887750e+00  1.44388416e+00
 -3.98085389e+00 -1.37887750e+00  1.44388416e+00 -2.46337898e+00 -3.32718989e+00
 -3.30374788e+00 -2.46337898e+00 -3.32718989e+00 -3.30374788e+00  1.54113862e-01
 -5.04126621e+00 -2.14551723e+00  1.54113862e-01 -5.04126621e+00 -2.14551723e+00
 -7.21566649e-01  6.05668397e+00 -2.01828632e+00 -7.21566649e-01  6.05668397e+00
 -2.01828632e+00 -7.21566649e-01  6.05668397e+00 -2.01828632e+00 -7.21566649e-01
  6.05668397e+00 -2.01828632e+00 -7.21566649e-01  6.05668397e+00 -2.01828632e+00
 -7.21566649e-01  6.05668397e+00 -2.01828632e+00 -7.21566649e-01  6.05668397e+00
 -2.01828632e+00 -7.21566649e-01  6.05668397e+00 -2.01828632e+00  3.26803358e-01
  7.53906714e+00 -1.05337594e+00  3.26803358e-01  7.53906714e+00 -1.05337594e+00
 -2.69121979e+00  6.03530526e+00 -1.40972608e+00 -2.69121979e+00  6.03530526e+00
 -1.40972608e+00 -6.59347804e-01  6.35814467e+00 -4.06185852e+00 -6.59347804e-01
  6.35814467e+00 -4.06185852e+00  3.29370117e-01 -1.21590191e+00 -6.54831442e+00
  3.29370117e-01 -1.21590191e+00 -6.54831442e+00  4.02822525e-01 -4.54014307e+00
 -6.82676496e+00  4.02822525e-01 -4.54014307e+00 -6.82676496e+00  2.96815694e+00
 -2.96243389e+00 -5.39392031e+00  2.96815694e+00 -2.96243389e+00 -5.39392031e+00
 -1.34462407e-01 -2.52550034e+00  3.60823687e+00 -1.34462407e-01 -2.52550034e+00
  3.60823687e+00 -1.34462407e-01 -2.52550034e+00  3.60823687e+00 -1.34462407e-01
 -2.52550034e+00  3.60823687e+00 -1.34462407e-01 -2.52550034e+00  3.60823687e+00
 -1.34462407e-01 -2.52550034e+00  3.60823687e+00 -1.34462407e-01 -2.52550034e+00
  3.60823687e+00 -1.34462407e-01 -2.52550034e+00  3.60823687e+00 -1.52956384e+00
 -3.06896837e+00  5.78551610e+00 -1.52956384e+00 -3.06896837e+00  5.78551610e+00
 -1.52956384e+00 -3.06896837e+00  5.78551610e+00 -1.52956384e+00 -3.06896837e+00
  5.78551610e+00 -1.52956384e+00 -3.06896837e+00  5.78551610e+00 -1.52956384e+00