Generated by Psi4
     FORCE                           RHF                       TESTBAS
Number of atoms                            I               33
Charge                                     I                0
Multiplicity                               I                1
Number of electrons                        I              132
Number of alpha electrons                  I               66
Number of beta electrons                   I               66
Number of basis functions                  I              389
Number of independent functions            I              389
Atomic numbers                             I   N=          33
           6           6           6           6           7           6
           6           6           7           6           1           1
           1           1           6           1           1           1
           8           6           6           6           6           6
           6           1           1           1           1           6
           1           1           1
Nuclear charges                            R   N=          33
  6.00000000e+00  6.00000000e+00  6.00000000e+00  6.00000000e+00  7.00000000e+00
  6.00000000e+00  6.00000000e+00  6.00000000e+00  7.00000000e+00  6.00000000e+00
  1.00000000e+00  1.00000000e+00  1.00000000e+00  1.00000000e+00  6.00000000e+00
  1.00000000e+00  1.00000000e+00  1.00000000e+00  8.00000000e+00  6.00000000e+00
  6.00000000e+00  6.00000000e+00  6.00000000e+00  6.00000000e+00  6.00000000e+00
  1.00000000e+00  1.00000000e+00  1.00000000e+00  1.00000000e+00  6.00000000e+00
  1.00000000e+00  1.00000000e+00  1.00000000e+00
Current cartesian coordinates              R   N=          99
  5.53807874e+00  2.04328650e+00  2.11501892e+00  3.40071040e+00  1.67994279e+00
  5.77654586e-01  7.34817433e+00  3.81500028e+00  1.43749565e+00  7.03837362e+00
  5.24482044e+00 -7.87218064e-01  9.98891889e-01  2.81175195e+00 -3.21750986e+00
  3.08015259e+00  3.10784324e+00 -1.65451047e+00  4.93611295e+00  4.90267350e+00
 -2.31607949e+00 -6.95658300e-01  1.14574268e+00 -2.61764095e+00 -5.45520426e-01
 -3.75939451e-01 -4.67331192e-01  1.48129999e+00 -1.87253936e-01  1.27410509e+00
  4.66777010e+00  5.98986526e+00 -4.03576204e+00  8.46122606e+00  6.63131935e+00
 -1.31086518e+00  9.00309340e+00  4.10050049e+00  2.61885384e+00  5.72446154e+00
  9.13033525e-01  3.81703588e+00 -2.95456220e+00  8.28636374e-01 -4.31748875e+00
 -2.83501957e+00  2.25349185e+00 -5.80261634e+00 -4.73174008e+00  1.05777471e+00
 -3.28019189e+00 -2.99794436e+00 -1.05207906e+00 -5.18230017e+00  1.53445653e+00
 -1.51467487e+00  3.17259803e+00 -2.47596298e+00 -2.23981394e+00  8.19395938e-02
 -2.29874218e+00 -4.61095706e+00 -1.05773010e+00 -4.13180195e+00 -6.44665851e+00
 -5.83589974e-01 -6.12885240e+00 -5.88992722e+00  1.04837379e+00 -6.27155796e+00
 -3.51906327e+00  2.19968445e+00 -4.45002478e+00 -1.64749883e+00  1.75529188e+00
 -7.13173440e-01 -5.00937572e+00 -2.30084696e+00 -3.99078363e+00 -8.29262177e+00
 -1.47120551e+00 -7.56974489e+00 -7.30122802e+00  1.43682373e+00 -7.82153049e+00
 -3.10690230e+00  3.48490365e+00 -4.59022429e+00  8.81664226e-01  3.06512894e+00
 -6.35038377e+00  1.05574733e+00  4.13670503e+00 -4.50355068e+00  2.46070903e+00
  1.72509130e+00 -3.01053599e+00  1.11040751e+00  4.38673086e+00
Integer atomic weights                     I   N=          33
          12          12          12          12          14          12
          12          12          14          12           1           1
           1           1          12           1           1           1
          15          12          12          12          12          12
          12           1           1           1           1          12
           1           1           1
Real atomic weights                        R   N=          33
  1.20000000e+01  1.20000000e+01  1.20000000e+01  1.20000000e+01  1.40030740e+01
  1.20000000e+01  1.20000000e+01  1.20000000e+01  1.40030740e+01  1.20000000e+01
  1.00782503e+00  1.00782503e+00  1.00782503e+00  1.00782503e+00  1.20000000e+01
  1.00782503e+00  1.00782503e+00  1.00782503e+00  1.59949146e+01  1.20000000e+01
  1.20000000e+01  1.20000000e+01  1.20000000e+01  1.20000000e+01  1.20000000e+01
  1.00782503e+00  1.00782503e+00  1.00782503e+00  1.00782503e+00  1.20000000e+01
  1.00782503e+00  1.00782503e+00  1.00782503e+00
Number of primitive shells                 I              379
Number of contracted shells                I              180
Pure/Cartesian d shells                    I                1
Pure/Cartesian f shells                    I                1
Highest angular momentum                   I                2
Largest degree of contraction              I                6
Shell types                                I   N=         180
           0           0           1           0           1           2
           0           1           0           0           1           0
           1           2           0           1           0           0
           1           0           1           2           0           1
           0           0           1           0           1           2
           0           1           0           0           1           0
           1           2           0           1           0           0
           1           0           1           2           0           1
           0           0           1           0           1           2
           0           1           0           0           1           0
           1           2           0           1           0           0
           1           0           1           2           0           1
           0           0           1           0           1           2
           0           1           0           0           0           0
           0           0           0           0           0           0
           1           0           1           2           0           1
           0           0           0           0           0           0
           0           0           1           0           1           2
           0           1           0           0           1           0
           1           2           0           1           0           0
           1           0           1           2           0           1
           0           0           1           0           1           2
           0           1           0           0           1           0
           1           2           0           1           0           0
           1           0           1           2           0           1
           0           0           1           0           1           2
           0           1           0           0           0           0
           0           0           0           0           0           0
           1           0           1           2           0           1
           0           0           0           0           0           0
Number of primitives per shell             I   N=         180
           6           3           3           1           1           1
           1           1           6           3           3           1
           1           1           1           1           6           3
           3           1           1           1           1           1
           6           3           3           1           1           1
           1           1           6           3           3           1
           1           1           1           1           6           3
           3           1           1           1           1           1
           6           3           3           1           1           1
           1           1           6           3           3           1
           1           1           1           1           6           3
           3           1           1           1           1           1
           6           3           3           1           1           1
           1           1           3           1           3           1
           3           1           3           1           6           3
           3           1           1           1           1           1
           3           1           3           1           3           1
           6           3           3           1           1           1
           1           1           6           3           3           1
           1           1           1           1           6           3
           3           1           1           1           1           1
           6           3           3           1           1           1
           1           1           6           3           3           1
           1           1           1           1           6           3
           3           1           1           1           1           1
           6           3           3           1           1           1
           1           1           3           1           3           1
           3           1           3           1           6           3
           3           1           1           1           1           1
           3           1           3           1           3           1
Shell to atom map                          I   N=         180
           1           1           1           1           1           1
           1           1           2           2           2           2
           2           2           2           2           3           3
           3           3           3           3           3           3
           4           4           4           4           4           4
           4           4           5           5           5           5
           5           5           5           5           6           6
           6           6           6           6           6           6
           7           7           7           7           7           7
           7           7           8           8           8           8
           8           8           8           8           9           9
           9           9           9           9           9           9
          10          10          10          10          10          10
          10          10          11          11          12          12
          13          13          14          14          15          15
          15          15          15          15          15          15
          16          16          17          17          18          18
          19          19          19          19          19          19
          19          19          20          20          20          20
          20          20          20          20          21          21
          21          21          21          21          21          21
          22          22          22          22          22          22
          22          22          23          23          23          23
          23          23          23          23          24          24
          24          24          24          24          24          24
          25          25          25          25          25          25
          25          25          26          26          27          27
          28          28          29          29          30          30
          30          30          30          30          30          30
          31          31          32          32          33          33
Primitive exponents                        R   N=         379
  3.04752490e+03  4.57369510e+02  1.03948690e+02  2.92101550e+01  9.28666300e+00
  3.16392700e+00  7.86827240e+00  1.88128850e+00  5.44249300e-01  7.86827240e+00
  1.88128850e+00  5.44249300e-01  1.68714400e-01  1.68714400e-01  8.00000000e-01
  4.38000000e-02  4.38000000e-02  3.04752490e+03  4.57369510e+02  1.03948690e+02
  2.92101550e+01  9.28666300e+00  3.16392700e+00  7.86827240e+00  1.88128850e+00
  5.44249300e-01  7.86827240e+00  1.88128850e+00  5.44249300e-01  1.68714400e-01
  1.68714400e-01  8.00000000e-01  4.38000000e-02  4.38000000e-02  3.04752490e+03
  4.57369510e+02  1.03948690e+02  2.92101550e+01  9.28666300e+00  3.16392700e+00
  7.86827240e+00  1.88128850e+00  5.44249300e-01  7.86827240e+00  1.88128850e+00
  5.44249300e-01  1.68714400e-01  1.68714400e-01  8.00000000e-01  4.38000000e-02
  4.38000000e-02  3.04752490e+03  4.57369510e+02  1.03948690e+02  2.92101550e+01
  9.28666300e+00  3.16392700e+00  7.86827240e+00  1.88128850e+00  5.44249300e-01
  7.86827240e+00  1.88128850e+00  5.44249300e-01  1.68714400e-01  1.68714400e-01
  8.00000000e-01  4.38000000e-02  4.38000000e-02  4.17351100e+03  6.27457900e+02
  1.42902100e+02  4.02343300e+01  1.28202100e+01  4.39043700e+00  1.16263580e+01
  2.71628000e+00  7.72218000e-01  1.16263580e+01  2.71628000e+00  7.72218000e-01
  2.12031300e-01  2.12031300e-01  8.00000000e-01  6.39000000e-02  6.39000000e-02
  3.04752490e+03  4.57369510e+02  1.03948690e+02  2.92101550e+01  9.28666300e+00
  3.16392700e+00  7.86827240e+00  1.88128850e+00  5.44249300e-01  7.86827240e+00
  1.88128850e+00  5.44249300e-01  1.68714400e-01  1.68714400e-01  8.00000000e-01
  4.38000000e-02  4.38000000e-02  3.04752490e+03  4.57369510e+02  1.03948690e+02
  2.92101550e+01  9.28666300e+00  3.16392700e+00  7.86827240e+00  1.88128850e+00
  5.44249300e-01  7.86827240e+00  1.88128850e+00  5.44249300e-01  1.68714400e-01
  1.68714400e-01  8.00000000e-01  4.38000000e-02  4.38000000e-02  3.04752490e+03
  4.57369510e+02  1.03948690e+02  2.92101550e+01  9.28666300e+00  3.16392700e+00
  7.86827240e+00  1.88128850e+00  5.44249300e-01  7.86827240e+00  1.88128850e+00
  5.44249300e-01  1.68714400e-01  1.68714400e-01  8.00000000e-01  4.38000000e-02
  4.38000000e-02  4.17351100e+03  6.27457900e+02  1.42902100e+02  4.02343300e+01
  1.28202100e+01  4.39043700e+00  1.16263580e+01  2.71628000e+00  7.72218000e-01
  1.16263580e+01  2.71628000e+00  7.72218000e-01  2.12031300e-01  2.12031300e-01
  8.00000000e-01  6.39000000e-02  6.39000000e-02  3.04752490e+03  4.57369510e+02
  1.03948690e+02  2.92101550e+01  9.28666300e+00  3.16392700e+00  7.86827240e+00
  1.88128850e+00  5.44249300e-01  7.86827240e+00  1.88128850e+00  5.44249300e-01
  1.68714400e-01  1.68714400e-01  8.00000000e-01  4.38000000e-02  4.38000000e-02
  1.87311370e+01  2.82539370e+00  6.40121700e-01  1.61277800e-01  1.87311370e+01
  2.82539370e+00  6.40121700e-01  1.61277800e-01  1.87311370e+01  2.82539370e+00
  6.40121700e-01  1.61277800e-01  1.87311370e+01  2.82539370e+00  6.40121700e-01
  1.61277800e-01  3.04752490e+03  4.57369510e+02  1.03948690e+02  2.92101550e+01
  9.28666300e+00  3.16392700e+00  7.86827240e+00  1.88128850e+00  5.44249300e-01
  7.86827240e+00  1.88128850e+00  5.44249300e-01  1.68714400e-01  1.68714400e-01
  8.00000000e-01  4.38000000e-02  4.38000000e-02  1.87311370e+01  2.82539370e+00
  6.40121700e-01  1.61277800e-01  1.87311370e+01  2.82539370e+00  6.40121700e-01
  1.61277800e-01  1.87311370e+01  2.82539370e+00  6.40121700e-01  1.61277800e-01
  5.48467170e+03  8.25234950e+02  1.88046960e+02  5.29645000e+01  1.68975700e+01
  5.79963530e+00  1.55396160e+01  3.59993360e+00  1.01376180e+00  1.55396160e+01
  3.59993360e+00  1.01376180e+00  2.70005800e-01  2.70005800e-01  8.00000000e-01
  8.45000000e-02  8.45000000e-02  3.04752490e+03  4.57369510e+02  1.03948690e+02
  2.92101550e+01  9.28666300e+00  3.16392700e+00  7.86827240e+00  1.88128850e+00
  5.44249300e-01  7.86827240e+00  1.88128850e+00  5.44249300e-01  1.68714400e-01
  1.68714400e-01  8.00000000e-01  4.38000000e-02  4.38000000e-02  3.04752490e+03
  4.57369510e+02  1.03948690e+02  2.92101550e+01  9.28666300e+00  3.16392700e+00
  7.86827240e+00  1.88128850e+00  5.44249300e-01  7.86827240e+00  1.88128850e+00
  5.44249300e-01  1.68714400e-01  1.68714400e-01  8.00000000e-01  4.38000000e-02
  4.38000000e-02  3.04752490e+03  4.57369510e+02  1.03948690e+02  2.92101550e+01
  9.28666300e+00  3.16392700e+00  7.86827240e+00  1.88128850e+00  5.44249300e-01
  7.86827240e+00  1.88128850e+00  5.44249300e-01  1.68714400e-01  1.68714400e-01
  8.00000000e-01  4.38000000e-02  4.38000000e-02  3.04752490e+03  4.57369510e+02
  1.03948690e+02  2.92101550e+01  9.28666300e+00  3.16392700e+00  7.86827240e+00
  1.88128850e+00  5.44249300e-01  7.86827240e+00  1.88128850e+00  5.44249300e-01
  1.68714400e-01  1.68714400e-01  8.00000000e-01  4.38000000e-02  4.38000000e-02
  3.04752490e+03  4.57369510e+02  1.03948690e+02  2.92101550e+01  9.28666300e+00
  3.16392700e+00  7.86827240e+00  1.88128850e+00  5.44249300e-01  7.86827240e+00
  1.88128850e+00  5.44249300e-01  1.68714400e-01  1.68714400e-01  8.00000000e-01
  4.38000000e-02  4.38000000e-02  3.04752490e+03  4.57369510e+02  1.03948690e+02
  2.92101550e+01  9.28666300e+00  3.16392700e+00  7.86827240e+00  1.88128850e+00
  5.44249300e-01  7.86827240e+00  1.88128850e+00  5.44249300e-01  1.68714400e-01
  1.68714400e-01  8.00000000e-01  4.38000000e-02  4.38000000e-02  1.87311370e+01
  2.82539370e+00  6.40121700e-01  1.61277800e-01  1.87311370e+01  2.82539370e+00
  6.40121700e-01  1.61277800e-01  1.87311370e+01  2.82539370e+00  6.40121700e-01
  1.61277800e-01  1.87311370e+01  2.82539370e+00  6.40121700e-01  1.61277800e-01
  3.04752490e+03  4.57369510e+02  1.03948690e+02  2.92101550e+01  9.28666300e+00
  3.16392700e+00  7.86827240e+00  1.88128850e+00  5.44249300e-01  7.86827240e+00
  1.88128850e+00  5.44249300e-01  1.68714400e-01  1.68714400e-01  8.00000000e-01
  4.38000000e-02  4.38000000e-02  1.87311370e+01  2.82539370e+00  6.40121700e-01
  1.61277800e-01  1.87311370e+01  2.82539370e+00  6.40121700e-01  1.61277800e-01
  1.87311370e+01  2.82539370e+00  6.40121700e-01  1.61277800e-01
Contraction coefficients                   R   N=         379
  1.83470016e-03  1.40373012e-02  6.88426061e-02  2.32184421e-01  4.67941342e-01
  3.62312032e-01 -1.19332409e-01 -1.60854212e-01  1.14345648e+00  6.89990956e-02
  3.16423980e-01  7.44308252e-01  1.00000000e+00  1.00000000e+00  1.00000000e+00
  1.00000000e+00  1.00000000e+00  1.83470016e-03  1.40373012e-02  6.88426061e-02
  2.32184421e-01  4.67941342e-01  3.62312032e-01 -1.19332409e-01 -1.60854212e-01
  1.14345648e+00  6.89990956e-02  3.16423980e-01  7.44308252e-01  1.00000000e+00
  1.00000000e+00  1.00000000e+00  1.00000000e+00  1.00000000e+00  1.83470016e-03
  1.40373012e-02  6.88426061e-02  2.32184421e-01  4.67941342e-01  3.62312032e-01
 -1.19332409e-01 -1.60854212e-01  1.14345648e+00  6.89990956e-02  3.16423980e-01
  7.44308252e-01  1.00000000e+00  1.00000000e+00  1.00000000e+00  1.00000000e+00
  1.00000000e+00  1.83470016e-03  1.40373012e-02  6.88426061e-02  2.32184421e-01
  4.67941342e-01  3.62312032e-01 -1.19332409e-01 -1.60854212e-01  1.14345648e+00
  6.89990956e-02  3.16423980e-01  7.44308252e-01  1.00000000e+00  1.00000000e+00
  1.00000000e+00  1.00000000e+00  1.00000000e+00  1.83479944e-03  1.39949958e-02
  6.85869792e-02  2.32240930e-01  4.69069858e-01  3.60454891e-01 -1.14961023e-01
 -1.69118034e-01  1.14585223e+00  6.75800232e-02  3.23907111e-01  7.40895255e-01
  1.00000000e+00  1.00000000e+00  1.00000000e+00  1.00000000e+00  1.00000000e+00
  1.83470016e-03  1.40373012e-02  6.88426061e-02  2.32184421e-01  4.67941342e-01
  3.62312032e-01 -1.19332409e-01 -1.60854212e-01  1.14345648e+00  6.89990956e-02
  3.16423980e-01  7.44308252e-01  1.00000000e+00  1.00000000e+00  1.00000000e+00
  1.00000000e+00  1.00000000e+00  1.83470016e-03  1.40373012e-02  6.88426061e-02
  2.32184421e-01  4.67941342e-01  3.62312032e-01 -1.19332409e-01 -1.60854212e-01
  1.14345648e+00  6.89990956e-02  3.16423980e-01  7.44308252e-01  1.00000000e+00
  1.00000000e+00  1.00000000e+00  1.00000000e+00  1.00000000e+00  1.83470016e-03
  1.40373012e-02  6.88426061e-02  2.32184421e-01  4.67941342e-01  3.62312032e-01
 -1.19332409e-01 -1.60854212e-01  1.14345648e+00  6.89990956e-02  3.16423980e-01
  7.44308252e-01  1.00000000e+00  1.00000000e+00  1.00000000e+00  1.00000000e+00
  1.00000000e+00  1.83479944e-03  1.39949958e-02  6.85869792e-02  2.32240930e-01
  4.69069858e-01  3.60454891e-01 -1.14961023e-01 -1.69118034e-01  1.14585223e+00
  6.75800232e-02  3.23907111e-01  7.40895255e-01  1.00000000e+00  1.00000000e+00
  1.00000000e+00  1.00000000e+00  1.00000000e+00  1.83470016e-03  1.40373012e-02
  6.88426061e-02  2.32184421e-01  4.67941342e-01  3.62312032e-01 -1.19332409e-01
 -1.60854212e-01  1.14345648e+00  6.89990956e-02  3.16423980e-01  7.44308252e-01
  1.00000000e+00  1.00000000e+00  1.00000000e+00  1.00000000e+00  1.00000000e+00
  3.34945995e-02  2.34726947e-01  8.13757318e-01  1.00000000e+00  3.34945995e-02
  2.34726947e-01  8.13757318e-01  1.00000000e+00  3.34945995e-02  2.34726947e-01
  8.13757318e-01  1.00000000e+00  3.34945995e-02  2.34726947e-01  8.13757318e-01
  1.00000000e+00  1.83470016e-03  1.40373012e-02  6.88426061e-02  2.32184421e-01
  4.67941342e-01  3.62312032e-01 -1.19332409e-01 -1.60854212e-01  1.14345648e+00
  6.89990956e-02  3.16423980e-01  7.44308252e-01  1.00000000e+00  1.00000000e+00
  1.00000000e+00  1.00000000e+00  1.00000000e+00  3.34945995e-02  2.34726947e-01
  8.13757318e-01  1.00000000e+00  3.34945995e-02  2.34726947e-01  8.13757318e-01
  1.00000000e+00  3.34945995e-02  2.34726947e-01  8.13757318e-01  1.00000000e+00
  1.83109981e-03  1.39500985e-02  6.84450927e-02  2.32714275e-01  4.70192950e-01
  3.58520862e-01 -1.10777504e-01 -1.48026305e-01  1.13076704e+00  7.08742995e-02
  3.39752798e-01  7.27158595e-01  1.00000000e+00  1.00000000e+00  1.00000000e+00
  1.00000000e+00  1.00000000e+00  1.83470016e-03  1.40373012e-02  6.88426061e-02
  2.32184421e-01  4.67941342e-01  3.62312032e-01 -1.19332409e-01 -1.60854212e-01
  1.14345648e+00  6.89990956e-02  3.16423980e-01  7.44308252e-01  1.00000000e+00
  1.00000000e+00  1.00000000e+00  1.00000000e+00  1.00000000e+00  1.83470016e-03
  1.40373012e-02  6.88426061e-02  2.32184421e-01  4.67941342e-01  3.62312032e-01
 -1.19332409e-01 -1.60854212e-01  1.14345648e+00  6.89990956e-02  3.16423980e-01
  7.44308252e-01  1.00000000e+00  1.00000000e+00  1.00000000e+00  1.00000000e+00
  1.00000000e+00  1.83470016e-03  1.40373012e-02  6.88426061e-02  2.32184421e-01
  4.67941342e-01  3.62312032e-01 -1.19332409e-01 -1.60854212e-01  1.14345648e+00
  6.89990956e-02  3.16423980e-01  7.44308252e-01  1.00000000e+00  1.00000000e+00
  1.00000000e+00  1.00000000e+00  1.00000000e+00  1.83470016e-03  1.40373012e-02
  6.88426061e-02  2.32184421e-01  4.67941342e-01  3.62312032e-01 -1.19332409e-01
 -1.60854212e-01  1.14345648e+00  6.89990956e-02  3.16423980e-01  7.44308252e-01
  1.00000000e+00  1.00000000e+00  1.00000000e+00  1.00000000e+00  1.00000000e+00
  1.83470016e-03  1.40373012e-02  6.88426061e-02  2.32184421e-01  4.67941342e-01
  3.62312032e-01 -1.19332409e-01 -1.60854212e-01  1.14345648e+00  6.89990956e-02
  3.16423980e-01  7.44308252e-01  1.00000000e+00  1.00000000e+00  1.00000000e+00
  1.00000000e+00  1.00000000e+00  1.83470016e-03  1.40373012e-02  6.88426061e-02
  2.32184421e-01  4.67941342e-01  3.62312032e-01 -1.19332409e-01 -1.60854212e-01
  1.14345648e+00  6.89990956e-02  3.16423980e-01  7.44308252e-01  1.00000000e+00
  1.00000000e+00  1.00000000e+00  1.00000000e+00  1.00000000e+00  3.34945995e-02
  2.34726947e-01  8.13757318e-01  1.00000000e+00  3.34945995e-02  2.34726947e-01
  8.13757318e-01  1.00000000e+00  3.34945995e-02  2.34726947e-01  8.13757318e-01
  1.00000000e+00  3.34945995e-02  2.34726947e-01  8.13757318e-01  1.00000000e+00
  1.83470016e-03  1.40373012e-02  6.88426061e-02  2.32184421e-01  4.67941342e-01
  3.62312032e-01 -1.19332409e-01 -1.60854212e-01  1.14345648e+00  6.89990956e-02
  3.16423980e-01  7.44308252e-01  1.00000000e+00  1.00000000e+00  1.00000000e+00
  1.00000000e+00  1.00000000e+00  3.34945995e-02  2.34726947e-01  8.13757318e-01
  1.00000000e+00  3.34945995e-02  2.34726947e-01  8.13757318e-01  1.00000000e+00
  3.34945995e-02  2.34726947e-01  8.13757318e-01  1.00000000e+00
Coordinates of each shell                  R   N=         540
  5.53807874e+00  2.04328650e+00  2.11501892e+00  5.53807874e+00  2.04328650e+00
  2.11501892e+00  5.53807874e+00  2.04328650e+00  2.11501892e+00  5.53807874e+00
  2.04328650e+00  2.11501892e+00  5.53807874e+00  2.04328650e+00  2.11501892e+00
  5.53807874e+00  2.04328650e+00  2.11501892e+00  5.53807874e+00  2.04328650e+00
  2.11501892e+00  5.53807874e+00  2.04328650e+00  2.11501892e+00  3.40071040e+00
  1.67994279e+00  5.77654586e-01  3.40071040e+00  1.67994279e+00  5.77654586e-01
  3.40071040e+00  1.67994279e+00  5.77654586e-01  3.40071040e+00  1.67994279e+00
  5.77654586e-01  3.40071040e+00  1.67994279e+00  5.77654586e-01  3.40071040e+00
  1.67994279e+00  5.77654586e-01  3.40071040e+00  1.67994279e+00  5.77654586e-01
  3.40071040e+00  1.67994279e+00  5.77654586e-01  7.34817433e+00  3.81500028e+00
  1.43749565e+00  7.34817433e+00  3.81500028e+00  1.43749565e+00  7.34817433e+00
  3.81500028e+00  1.43749565e+00  7.34817433e+00  3.81500028e+00  1.43749565e+00
  7.34817433e+00  3.81500028e+00  1.43749565e+00  7.34817433e+00  3.81500028e+00
  1.43749565e+00  7.34817433e+00  3.81500028e+00  1.43749565e+00  7.34817433e+00
  3.81500028e+00  1.43749565e+00  7.03837362e+00  5.24482044e+00 -7.87218064e-01
  7.03837362e+00  5.24482044e+00 -7.87218064e-01  7.03837362e+00  5.24482044e+00
 -7.87218064e-01  7.03837362e+00  5.24482044e+00 -7.87218064e-01  7.03837362e+00
  5.24482044e+00 -7.87218064e-01  7.03837362e+00  5.24482044e+00 -7.87218064e-01
  7.03837362e+00  5.24482044e+00 -7.87218064e-01  7.03837362e+00  5.24482044e+00
 -7.87218064e-01  9.98891889e-01  2.81175195e+00 -3.21750986e+00  9.98891889e-01
  2.81175195e+00 -3.21750986e+00  9.98891889e-01  2.81175195e+00 -3.21750986e+00
  9.98891889e-01  2.81175195e+00 -3.21750986e+00  9.98891889e-01  2.81175195e+00
 -3.21750986e+00  9.98891889e-01  2.81175195e+00 -3.21750986e+00  9.98891889e-01
  2.81175195e+00 -3.21750986e+00  9.98891889e-01  2.81175195e+00 -3.21750986e+00
  3.08015259e+00  3.10784324e+00 -1.65451047e+00  3.08015259e+00  3.10784324e+00
 -1.65451047e+00  3.08015259e+00  3.10784324e+00 -1.65451047e+00  3.08015259e+00
  3.10784324e+00 -1.65451047e+00  3.08015259e+00  3.10784324e+00 -1.65451047e+00
  3.08015259e+00  3.10784324e+00 -1.65451047e+00  3.08015259e+00  3.10784324e+00
 -1.65451047e+00  3.08015259e+00  3.10784324e+00 -1.65451047e+00  4.93611295e+00
  4.90267350e+00 -2.31607949e+00  4.93611295e+00  4.90267350e+00 -2.31607949e+00
  4.93611295e+00  4.90267350e+00 -2.31607949e+00  4.93611295e+00  4.90267350e+00
 -2.31607949e+00  4.93611295e+00  4.90267350e+00 -2.31607949e+00  4.93611295e+00
  4.90267350e+00 -2.31607949e+00  4.93611295e+00  4.90267350e+00 -2.31607949e+00
  4.93611295e+00  4.90267350e+00 -2.31607949e+00 -6.95658300e-01  1.14574268e+00
 -2.61764095e+00 -6.95658300e-01  1.14574268e+00 -2.61764095e+00 -6.95658300e-01
  1.14574268e+00 -2.61764095e+00 -6.95658300e-01  1.14574268e+00 -2.61764095e+00
 -6.95658300e-01  1.14574268e+00 -2.61764095e+00 -6.95658300e-01  1.14574268e+00
 -2.61764095e+00 -6.95658300e-01  1.14574268e+00 -2.61764095e+00 -6.95658300e-01
  1.14574268e+00 -2.61764095e+00 -5.45520426e-01 -3.75939451e-01 -4.67331192e-01
 -5.45520426e-01 -3.75939451e-01 -4.67331192e-01 -5.45520426e-01 -3.75939451e-01
 -4.67331192e-01 -5.45520426e-01 -3.75939451e-01 -4.67331192e-01 -5.45520426e-01
 -3.75939451e-01 -4.67331192e-01 -5.45520426e-01 -3.75939451e-01 -4.67331192e-01
 -5.45520426e-01 -3.75939451e-01 -4.67331192e-01 -5.45520426e-01 -3.75939451e-01
 -4.67331192e-01  1.48129999e+00 -1.87253936e-01  1.27410509e+00  1.48129999e+00
 -1.87253936e-01  1.27410509e+00  1.48129999e+00 -1.87253936e-01  1.27410509e+00
  1.48129999e+00 -1.87253936e-01  1.27410509e+00  1.48129999e+00 -1.87253936e-01
  1.27410509e+00  1.48129999e+00 -1.87253936e-01  1.27410509e+00  1.48129999e+00
 -1.87253936e-01  1.27410509e+00  1.48129999e+00 -1.87253936e-01  1.27410509e+00
  4.66777010e+00  5.98986526e+00 -4.03576204e+00  4.66777010e+00  5.98986526e+00
 -4.03576204e+00  8.46122606e+00  6.63131935e+00 -1.31086518e+00  8.46122606e+00
  6.63131935e+00 -1.31086518e+00  9.00309340e+00  4.10050049e+00  2.61885384e+00
  9.00309340e+00  4.10050049e+00  2.61885384e+00  5.72446154e+00  9.13033525e-01
  3.81703588e+00  5.72446154e+00  9.13033525e-01  3.81703588e+00 -2.95456220e+00
  8.28636374e-01 -4.31748875e+00 -2.95456220e+00  8.28636374e-01 -4.31748875e+00
 -2.95456220e+00  8.28636374e-01 -4.31748875e+00 -2.95456220e+00  8.28636374e-01
 -4.31748875e+00 -2.95456220e+00  8.28636374e-01 -4.31748875e+00 -2.95456220e+00
  8.28636374e-01 -4.31748875e+00 -2.95456220e+00  8.28636374e-01 -4.31748875e+00
 -2.95456220e+00  8.28636374e-01 -4.31748875e+00 -2.83501957e+00  2.25349185e+00
 -5.80261634e+00 -2.83501957e+00  2.25349185e+00 -5.80261634e+00 -4.73174008e+00
  1.05777471e+00 -3.28019189e+00 -4.73174008e+00  1.05777471e+00 -3.28019189e+00
 -2.99794436e+00 -1.05207906e+00 -5.18230017e+00 -2.99794436e+00 -1.05207906e+00
 -5.18230017e+00  1.53445653e+00 -1.51467487e+00  3.17259803e+00  1.53445653e+00
 -1.51467487e+00  3.17259803e+00  1.53445653e+00 -1.51467487e+00  3.17259803e+00
  1.53445653e+00 -1.51467487e+00  3.17259803e+00  1.53445653e+00 -1.51467487e+00
  3.17259803e+00  1.53445653e+00 -1.51467487e+00  3.17259803e+00  1.53445653e+00
 -1.51467487e+00  3.17259803e+00  1.53445653e+00 -1.51467487e+00  3.17259803e+00
 -2.47596298e+00 -2.23981394e+00  8.19395938e-02 -2.47596298e+00 -2.23981394e+00
  8.19395938e-02 -2.47596298e+00 -2.23981394e+00  8.19395938e-02 -2.47596298e+00
 -2.23981394e+00  8.19395938e-02 -2.47596298e+00 -2.23981394e+00  8.19395938e-02
 -2.47596298e+00 -2.23981394e+00  8.19395938e-02 -2.47596298e+00 -2.23981394e+00
  8.19395938e-02 -2.47596298e+00 -2.23981394e+00  8.19395938e-02 -2.29874218e+00
 -4.61095706e+00 -1.05773010e+00 -2.29874218e+00 -4.61095706e+00 -1.05773010e+00
 -2.29874218e+00 -4.61095706e+00 -1.05773010e+00 -2.29874218e+00 -4.61095706e+00
 -1.05773010e+00 -2.29874218e+00 -4.61095706e+00 -1.05773010e+00 -2.29874218e+00