Generated by Psi4
     FORCE                           RHF                       TESTBAS
Number of atoms                            I               30
Charge                                     I                0
Multiplicity                               I                1
Number of electrons                        I              112
Number of alpha electrons                  I               56
Number of beta electrons                   I               56
Number of basis functions                  I              315
Number of independent functions            I              315
Atomic numbers                             I   N=          30
           6           6           6           1           1           7
           6           6           6           6           6           8
           6           1           1           1           1           1
           1           6           8           1           1           1
           1           8           6           1           1           1
Nuclear charges                            R   N=          30
  6.00000000e+00  6.00000000e+00  6.00000000e+00  1.00000000e+00  1.00000000e+00
  7.00000000e+00  6.00000000e+00  6.00000000e+00  6.00000000e+00  6.00000000e+00
  6.00000000e+00  8.00000000e+00  6.00000000e+00  1.00000000e+00  1.00000000e+00
  1.00000000e+00  1.00000000e+00  1.00000000e+00  1.00000000e+00  6.00000000e+00
  8.00000000e+00  1.00000000e+00  1.00000000e+00  1.00000000e+00  1.00000000e+00
  8.00000000e+00  6.00000000e+00  1.00000000e+00  1.00000000e+00  1.00000000e+00
Current cartesian coordinates              R   N=          90
 -2.94500007e-01 -1.03907854e+00  1.11876621e+00 -2.08475069e+00 -2.28191964e+00
  2.97023759e+00 -4.67607791e+00 -9.32955600e-01  3.31876769e+00 -1.16208824e+00
 -2.40934676e+00  4.82750146e+00 -2.46532634e+00 -4.22353397e+00  2.35014664e+00
 -6.47854804e+00 -2.41723383e+00  4.82656899e+00  1.74978151e+00  4.30075777e-01
  1.98538956e+00  3.31816963e+00  1.55859625e+00  2.28473710e-01  2.92672505e+00
  1.25160201e+00 -2.34339866e+00  9.62774617e-01 -1.89984311e-01 -3.29402162e+00
 -6.53416670e-01 -1.33214791e+00 -1.51020668e+00  5.48439145e+00  2.97778552e+00
  6.16337563e-01 -4.40113537e+00  1.68308348e+00  4.52044314e+00 -3.59680025e+00
  1.53583002e+00  6.43137205e+00 -6.25188817e+00  2.59434935e+00  4.67803084e+00
 -3.15342451e+00  2.89893643e+00  3.40409444e+00 -5.52815601e+00 -7.12155342e-01
  1.44274454e+00 -5.80049083e+00 -2.69447144e+00  6.61067475e+00 -6.74274918e+00
 -4.16148255e+00  4.05358503e+00  6.04499185e+00  4.02138618e+00 -1.81319396e+00
  4.80623384e+00  2.47670683e+00 -3.67026198e+00  8.08074605e+00  3.97175152e+00
 -2.13218715e+00  5.28836979e+00  5.95477198e+00 -1.92838773e+00  2.08574922e+00
  6.54645915e-01  3.99729655e+00  7.14440929e-01 -4.10138219e-01 -5.31288396e+00
 -2.67710559e+00 -2.80501553e+00 -2.20465132e+00 -3.10541061e+00 -3.27087854e+00
 -4.81203382e+00 -3.49923162e+00 -1.51221855e+00 -5.84108520e+00 -4.76263619e+00
 -4.49616720e+00 -4.89758044e+00 -1.48902960e+00 -4.23687125e+00 -5.68422586e+00
Integer atomic weights                     I   N=          30
          12          12          12           1           1          14
          12          12          12          12          12          15
          12           1           1           1           1           1
           1          12          15           1           1           1
           1          15          12           1           1           1
Real atomic weights                        R   N=          30
  1.20000000e+01  1.20000000e+01  1.20000000e+01  1.00782503e+00  1.00782503e+00
  1.40030740e+01  1.20000000e+01  1.20000000e+01  1.20000000e+01  1.20000000e+01
  1.20000000e+01  1.59949146e+01  1.20000000e+01  1.00782503e+00  1.00782503e+00
  1.00782503e+00  1.00782503e+00  1.00782503e+00  1.00782503e+00  1.20000000e+01
  1.59949146e+01  1.00782503e+00  1.00782503e+00  1.00782503e+00  1.00782503e+00
  1.59949146e+01  1.20000000e+01  1.00782503e+00  1.00782503e+00  1.00782503e+00
Number of primitive shells                 I              315
Number of contracted shells                I              150
Pure/Cartesian d shells                    I                1
Pure/Cartesian f shells                    I                1
Highest angular momentum                   I                2
Largest degree of contraction              I                6
Shell types                                I   N=         150
           0           0           1           0           1           2
           0           1           0           0           1           0
           1           2           0           1           0           0
           1           0           1           2           0           1
           0           0           0           0           0           0
           1           0           1           2           0           1
           0           0           1           0           1           2
           0           1           0           0           1           0
           1           2           0           1           0           0
           1           0           1           2           0           1
           0           0           1           0           1           2
           0           1           0           0           1           0
           1           2           0           1           0           0
           1           0           1           2           0           1
           0           0           1           0           1           2
           0           1           0           0           0           0
           0           0           0           0           0           0
           0           0           0           0           1           0
           1           2           0           1           0           0
           1           0           1           2           0           1
           0           0           0           0           0           0
           0           0           0           0           1           0
           1           2           0           1           0           0
           1           0           1           2           0           1
           0           0           0           0           0           0
Number of primitives per shell             I   N=         150
           6           3           3           1           1           1
           1           1           6           3           3           1
           1           1           1           1           6           3
           3           1           1           1           1           1
           3           1           3           1           6           3
           3           1           1           1           1           1
           6           3           3           1           1           1
           1           1           6           3           3           1
           1           1           1           1           6           3
           3           1           1           1           1           1
           6           3           3           1           1           1
           1           1           6           3           3           1
           1           1           1           1           6           3
           3           1           1           1           1           1
           6           3           3           1           1           1
           1           1           3           1           3           1
           3           1           3           1           3           1
           3           1           6           3           3           1
           1           1           1           1           6           3
           3           1           1           1           1           1
           3           1           3           1           3           1
           3           1           6           3           3           1
           1           1           1           1           6           3
           3           1           1           1           1           1
           3           1           3           1           3           1
Shell to atom map                          I   N=         150
           1           1           1           1           1           1
           1           1           2           2           2           2
           2           2           2           2           3           3
           3           3           3           3           3           3
           4           4           5           5           6           6
           6           6           6           6           6           6
           7           7           7           7           7           7
           7           7           8           8           8           8
           8           8           8           8           9           9
           9           9           9           9           9           9
          10          10          10          10          10          10
          10          10          11          11          11          11
          11          11          11          11          12          12
          12          12          12          12          12          12
          13          13          13          13          13          13
          13          13          14          14          15          15
          16          16          17          17          18          18
          19          19          20          20          20          20
          20          20          20          20          21          21
          21          21          21          21          21          21
          22          22          23          23          24          24
          25          25          26          26          26          26
          26          26          26          26          27          27
          27          27          27          27          27          27
          28          28          29          29          30          30
Primitive exponents                        R   N=         315
  3.04752490e+03  4.57369510e+02  1.03948690e+02  2.92101550e+01  9.28666300e+00
  3.16392700e+00  7.86827240e+00  1.88128850e+00  5.44249300e-01  7.86827240e+00
  1.88128850e+00  5.44249300e-01  1.68714400e-01  1.68714400e-01  8.00000000e-01
  4.38000000e-02  4.38000000e-02  3.04752490e+03  4.57369510e+02  1.03948690e+02
  2.92101550e+01  9.28666300e+00  3.16392700e+00  7.86827240e+00  1.88128850e+00
  5.44249300e-01  7.86827240e+00  1.88128850e+00  5.44249300e-01  1.68714400e-01
  1.68714400e-01  8.00000000e-01  4.38000000e-02  4.38000000e-02  3.04752490e+03
  4.57369510e+02  1.03948690e+02  2.92101550e+01  9.28666300e+00  3.16392700e+00
  7.86827240e+00  1.88128850e+00  5.44249300e-01  7.86827240e+00  1.88128850e+00
  5.44249300e-01  1.68714400e-01  1.68714400e-01  8.00000000e-01  4.38000000e-02
  4.38000000e-02  1.87311370e+01  2.82539370e+00  6.40121700e-01  1.61277800e-01
  1.87311370e+01  2.82539370e+00  6.40121700e-01  1.61277800e-01  4.17351100e+03
  6.27457900e+02  1.42902100e+02  4.02343300e+01  1.28202100e+01  4.39043700e+00
  1.16263580e+01  2.71628000e+00  7.72218000e-01  1.16263580e+01  2.71628000e+00
  7.72218000e-01  2.12031300e-01  2.12031300e-01  8.00000000e-01  6.39000000e-02
  6.39000000e-02  3.04752490e+03  4.57369510e+02  1.03948690e+02  2.92101550e+01
  9.28666300e+00  3.16392700e+00  7.86827240e+00  1.88128850e+00  5.44249300e-01
  7.86827240e+00  1.88128850e+00  5.44249300e-01  1.68714400e-01  1.68714400e-01
  8.00000000e-01  4.38000000e-02  4.38000000e-02  3.04752490e+03  4.57369510e+02
  1.03948690e+02  2.92101550e+01  9.28666300e+00  3.16392700e+00  7.86827240e+00
  1.88128850e+00  5.44249300e-01  7.86827240e+00  1.88128850e+00  5.44249300e-01
  1.68714400e-01  1.68714400e-01  8.00000000e-01  4.38000000e-02  4.38000000e-02
  3.04752490e+03  4.57369510e+02  1.03948690e+02  2.92101550e+01  9.28666300e+00
  3.16392700e+00  7.86827240e+00  1.88128850e+00  5.44249300e-01  7.86827240e+00
  1.88128850e+00  5.44249300e-01  1.68714400e-01  1.68714400e-01  8.00000000e-01
  4.38000000e-02  4.38000000e-02  3.04752490e+03  4.57369510e+02  1.03948690e+02
  2.92101550e+01  9.28666300e+00  3.16392700e+00  7.86827240e+00  1.88128850e+00
  5.44249300e-01  7.86827240e+00  1.88128850e+00  5.44249300e-01  1.68714400e-01
  1.68714400e-01  8.00000000e-01  4.38000000e-02  4.38000000e-02  3.04752490e+03
  4.57369510e+02  1.03948690e+02  2.92101550e+01  9.28666300e+00  3.16392700e+00
  7.86827240e+00  1.88128850e+00  5.44249300e-01  7.86827240e+00  1.88128850e+00
  5.44249300e-01  1.68714400e-01  1.68714400e-01  8.00000000e-01  4.38000000e-02
  4.38000000e-02  5.48467170e+03  8.25234950e+02  1.88046960e+02  5.29645000e+01
  1.68975700e+01  5.79963530e+00  1.55396160e+01  3.59993360e+00  1.01376180e+00
  1.55396160e+01  3.59993360e+00  1.01376180e+00  2.70005800e-01  2.70005800e-01
  8.00000000e-01  8.45000000e-02  8.45000000e-02  3.04752490e+03  4.57369510e+02
  1.03948690e+02  2.92101550e+01  9.28666300e+00  3.16392700e+00  7.86827240e+00
  1.88128850e+00  5.44249300e-01  7.86827240e+00  1.88128850e+00  5.44249300e-01
  1.68714400e-01  1.68714400e-01  8.00000000e-01  4.38000000e-02  4.38000000e-02
  1.87311370e+01  2.82539370e+00  6.40121700e-01  1.61277800e-01  1.87311370e+01
  2.82539370e+00  6.40121700e-01  1.61277800e-01  1.87311370e+01  2.82539370e+00
  6.40121700e-01  1.61277800e-01  1.87311370e+01  2.82539370e+00  6.40121700e-01
  1.61277800e-01  1.87311370e+01  2.82539370e+00  6.40121700e-01  1.61277800e-01
  1.87311370e+01  2.82539370e+00  6.40121700e-01  1.61277800e-01  3.04752490e+03
  4.57369510e+02  1.03948690e+02  2.92101550e+01  9.28666300e+00  3.16392700e+00
  7.86827240e+00  1.88128850e+00  5.44249300e-01  7.86827240e+00  1.88128850e+00
  5.44249300e-01  1.68714400e-01  1.68714400e-01  8.00000000e-01  4.38000000e-02
  4.38000000e-02  5.48467170e+03  8.25234950e+02  1.88046960e+02  5.29645000e+01
  1.68975700e+01  5.79963530e+00  1.55396160e+01  3.59993360e+00  1.01376180e+00
  1.55396160e+01  3.59993360e+00  1.01376180e+00  2.70005800e-01  2.70005800e-01
  8.00000000e-01  8.45000000e-02  8.45000000e-02  1.87311370e+01  2.82539370e+00
  6.40121700e-01  1.61277800e-01  1.87311370e+01  2.82539370e+00  6.40121700e-01
  1.61277800e-01  1.87311370e+01  2.82539370e+00  6.40121700e-01  1.61277800e-01
  1.87311370e+01  2.82539370e+00  6.40121700e-01  1.61277800e-01  5.48467170e+03
  8.25234950e+02  1.88046960e+02  5.29645000e+01  1.68975700e+01  5.79963530e+00
  1.55396160e+01  3.59993360e+00  1.01376180e+00  1.55396160e+01  3.59993360e+00
  1.01376180e+00  2.70005800e-01  2.70005800e-01  8.00000000e-01  8.45000000e-02
  8.45000000e-02  3.04752490e+03  4.57369510e+02  1.03948690e+02  2.92101550e+01
  9.28666300e+00  3.16392700e+00  7.86827240e+00  1.88128850e+00  5.44249300e-01
  7.86827240e+00  1.88128850e+00  5.44249300e-01  1.68714400e-01  1.68714400e-01
  8.00000000e-01  4.38000000e-02  4.38000000e-02  1.87311370e+01  2.82539370e+00
  6.40121700e-01  1.61277800e-01  1.87311370e+01  2.82539370e+00  6.40121700e-01
  1.61277800e-01  1.87311370e+01  2.82539370e+00  6.40121700e-01  1.61277800e-01
Contraction coefficients                   R   N=         315
  1.83470016e-03  1.40373012e-02  6.88426061e-02  2.32184421e-01  4.67941342e-01
  3.62312032e-01 -1.19332409e-01 -1.60854212e-01  1.14345648e+00  6.89990956e-02
  3.16423980e-01  7.44308252e-01  1.00000000e+00  1.00000000e+00  1.00000000e+00
  1.00000000e+00  1.00000000e+00  1.83470016e-03  1.40373012e-02  6.88426061e-02
  2.32184421e-01  4.67941342e-01  3.62312032e-01 -1.19332409e-01 -1.60854212e-01
  1.14345648e+00  6.89990956e-02  3.16423980e-01  7.44308252e-01  1.00000000e+00
  1.00000000e+00  1.00000000e+00  1.00000000e+00  1.00000000e+00  1.83470016e-03
  1.40373012e-02  6.88426061e-02  2.32184421e-01  4.67941342e-01  3.62312032e-01
 -1.19332409e-01 -1.60854212e-01  1.14345648e+00  6.89990956e-02  3.16423980e-01
  7.44308252e-01  1.00000000e+00  1.00000000e+00  1.00000000e+00  1.00000000e+00
  1.00000000e+00  3.34945995e-02  2.34726947e-01  8.13757318e-01  1.00000000e+00
  3.34945995e-02  2.34726947e-01  8.13757318e-01  1.00000000e+00  1.83479944e-03
  1.39949958e-02  6.85869792e-02  2.32240930e-01  4.69069858e-01  3.60454891e-01
 -1.14961023e-01 -1.69118034e-01  1.14585223e+00  6.75800232e-02  3.23907111e-01
  7.40895255e-01  1.00000000e+00  1.00000000e+00  1.00000000e+00  1.00000000e+00
  1.00000000e+00  1.83470016e-03  1.40373012e-02  6.88426061e-02  2.32184421e-01
  4.67941342e-01  3.62312032e-01 -1.19332409e-01 -1.60854212e-01  1.14345648e+00
  6.89990956e-02  3.16423980e-01  7.44308252e-01  1.00000000e+00  1.00000000e+00
  1.00000000e+00  1.00000000e+00  1.00000000e+00  1.83470016e-03  1.40373012e-02
  6.88426061e-02  2.32184421e-01  4.67941342e-01  3.62312032e-01 -1.19332409e-01
 -1.60854212e-01  1.14345648e+00  6.89990956e-02  3.16423980e-01  7.44308252e-01
  1.00000000e+00  1.00000000e+00  1.00000000e+00  1.00000000e+00  1.00000000e+00
  1.83470016e-03  1.40373012e-02  6.88426061e-02  2.32184421e-01  4.67941342e-01
  3.62312032e-01 -1.19332409e-01 -1.60854212e-01  1.14345648e+00  6.89990956e-02
  3.16423980e-01  7.44308252e-01  1.00000000e+00  1.00000000e+00  1.00000000e+00
  1.00000000e+00  1.00000000e+00  1.83470016e-03  1.40373012e-02  6.88426061e-02
  2.32184421e-01  4.67941342e-01  3.62312032e-01 -1.19332409e-01 -1.60854212e-01
  1.14345648e+00  6.89990956e-02  3.16423980e-01  7.44308252e-01  1.00000000e+00
  1.00000000e+00  1.00000000e+00  1.00000000e+00  1.00000000e+00  1.83470016e-03
  1.40373012e-02  6.88426061e-02  2.32184421e-01  4.67941342e-01  3.62312032e-01
 -1.19332409e-01 -1.60854212e-01  1.14345648e+00  6.89990956e-02  3.16423980e-01
  7.44308252e-01  1.00000000e+00  1.00000000e+00  1.00000000e+00  1.00000000e+00
  1.00000000e+00  1.83109981e-03  1.39500985e-02  6.84450927e-02  2.32714275e-01
  4.70192950e-01  3.58520862e-01 -1.10777504e-01 -1.48026305e-01  1.13076704e+00
  7.08742995e-02  3.39752798e-01  7.27158595e-01  1.00000000e+00  1.00000000e+00
  1.00000000e+00  1.00000000e+00  1.00000000e+00  1.83470016e-03  1.40373012e-02
  6.88426061e-02  2.32184421e-01  4.67941342e-01  3.62312032e-01 -1.19332409e-01
 -1.60854212e-01  1.14345648e+00  6.89990956e-02  3.16423980e-01  7.44308252e-01
  1.00000000e+00  1.00000000e+00  1.00000000e+00  1.00000000e+00  1.00000000e+00
  3.34945995e-02  2.34726947e-01  8.13757318e-01  1.00000000e+00  3.34945995e-02
  2.34726947e-01  8.13757318e-01  1.00000000e+00  3.34945995e-02  2.34726947e-01
  8.13757318e-01  1.00000000e+00  3.34945995e-02  2.34726947e-01  8.13757318e-01
  1.00000000e+00  3.34945995e-02  2.34726947e-01  8.13757318e-01  1.00000000e+00
  3.34945995e-02  2.34726947e-01  8.13757318e-01  1.00000000e+00  1.83470016e-03
  1.40373012e-02  6.88426061e-02  2.32184421e-01  4.67941342e-01  3.62312032e-01
 -1.19332409e-01 -1.60854212e-01  1.14345648e+00  6.89990956e-02  3.16423980e-01
  7.44308252e-01  1.00000000e+00  1.00000000e+00  1.00000000e+00  1.00000000e+00
  1.00000000e+00  1.83109981e-03  1.39500985e-02  6.84450927e-02  2.32714275e-01
  4.70192950e-01  3.58520862e-01 -1.10777504e-01 -1.48026305e-01  1.13076704e+00
  7.08742995e-02  3.39752798e-01  7.27158595e-01  1.00000000e+00  1.00000000e+00
  1.00000000e+00  1.00000000e+00  1.00000000e+00  3.34945995e-02  2.34726947e-01
  8.13757318e-01  1.00000000e+00  3.34945995e-02  2.34726947e-01  8.13757318e-01
  1.00000000e+00  3.34945995e-02  2.34726947e-01  8.13757318e-01  1.00000000e+00
  3.34945995e-02  2.34726947e-01  8.13757318e-01  1.00000000e+00  1.83109981e-03
  1.39500985e-02  6.84450927e-02  2.32714275e-01  4.70192950e-01  3.58520862e-01
 -1.10777504e-01 -1.48026305e-01  1.13076704e+00  7.08742995e-02  3.39752798e-01
  7.27158595e-01  1.00000000e+00  1.00000000e+00  1.00000000e+00  1.00000000e+00
  1.00000000e+00  1.83470016e-03  1.40373012e-02  6.88426061e-02  2.32184421e-01
  4.67941342e-01  3.62312032e-01 -1.19332409e-01 -1.60854212e-01  1.14345648e+00
  6.89990956e-02  3.16423980e-01  7.44308252e-01  1.00000000e+00  1.00000000e+00
  1.00000000e+00  1.00000000e+00  1.00000000e+00  3.34945995e-02  2.34726947e-01
  8.13757318e-01  1.00000000e+00  3.34945995e-02  2.34726947e-01  8.13757318e-01
  1.00000000e+00  3.34945995e-02  2.34726947e-01  8.13757318e-01  1.00000000e+00
Coordinates of each shell                  R   N=         450
 -2.94500007e-01 -1.03907854e+00  1.11876621e+00 -2.94500007e-01 -1.03907854e+00
  1.11876621e+00 -2.94500007e-01 -1.03907854e+00  1.11876621e+00 -2.94500007e-01
 -1.03907854e+00  1.11876621e+00 -2.94500007e-01 -1.03907854e+00  1.11876621e+00
 -2.94500007e-01 -1.03907854e+00  1.11876621e+00 -2.94500007e-01 -1.03907854e+00
  1.11876621e+00 -2.94500007e-01 -1.03907854e+00  1.11876621e+00 -2.08475069e+00
 -2.28191964e+00  2.97023759e+00 -2.08475069e+00 -2.28191964e+00  2.97023759e+00
 -2.08475069e+00 -2.28191964e+00  2.97023759e+00 -2.08475069e+00 -2.28191964e+00
  2.97023759e+00 -2.08475069e+00 -2.28191964e+00  2.97023759e+00 -2.08475069e+00
 -2.28191964e+00  2.97023759e+00 -2.08475069e+00 -2.28191964e+00  2.97023759e+00
 -2.08475069e+00 -2.28191964e+00  2.97023759e+00 -4.67607791e+00 -9.32955600e-01
  3.31876769e+00 -4.67607791e+00 -9.32955600e-01  3.31876769e+00 -4.67607791e+00
 -9.32955600e-01  3.31876769e+00 -4.67607791e+00 -9.32955600e-01  3.31876769e+00
 -4.67607791e+00 -9.32955600e-01  3.31876769e+00 -4.67607791e+00 -9.32955600e-01
  3.31876769e+00 -4.67607791e+00 -9.32955600e-01  3.31876769e+00 -4.67607791e+00
 -9.32955600e-01  3.31876769e+00 -1.16208824e+00 -2.40934676e+00  4.82750146e+00
 -1.16208824e+00 -2.40934676e+00  4.82750146e+00 -2.46532634e+00 -4.22353397e+00
  2.35014664e+00 -2.46532634e+00 -4.22353397e+00  2.35014664e+00 -6.47854804e+00
 -2.41723383e+00  4.82656899e+00 -6.47854804e+00 -2.41723383e+00  4.82656899e+00
 -6.47854804e+00 -2.41723383e+00  4.82656899e+00 -6.47854804e+00 -2.41723383e+00
  4.82656899e+00 -6.47854804e+00 -2.41723383e+00  4.82656899e+00 -6.47854804e+00
 -2.41723383e+00  4.82656899e+00 -6.47854804e+00 -2.41723383e+00  4.82656899e+00
 -6.47854804e+00 -2.41723383e+00  4.82656899e+00  1.74978151e+00  4.30075777e-01
  1.98538956e+00  1.74978151e+00  4.30075777e-01  1.98538956e+00  1.74978151e+00
  4.30075777e-01  1.98538956e+00  1.74978151e+00  4.30075777e-01  1.98538956e+00
  1.74978151e+00  4.30075777e-01  1.98538956e+00  1.74978151e+00  4.30075777e-01
  1.98538956e+00  1.74978151e+00  4.30075777e-01  1.98538956e+00  1.74978151e+00
  4.30075777e-01  1.98538956e+00  3.31816963e+00  1.55859625e+00  2.28473710e-01
  3.31816963e+00  1.55859625e+00  2.28473710e-01  3.31816963e+00  1.55859625e+00
  2.28473710e-01  3.31816963e+00  1.55859625e+00  2.28473710e-01  3.31816963e+00
  1.55859625e+00  2.28473710e-01  3.31816963e+00  1.55859625e+00  2.28473710e-01
  3.31816963e+00  1.55859625e+00  2.28473710e-01  3.31816963e+00  1.55859625e+00
  2.28473710e-01  2.92672505e+00  1.25160201e+00 -2.34339866e+00  2.92672505e+00
  1.25160201e+00 -2.34339866e+00  2.92672505e+00  1.25160201e+00 -2.34339866e+00
  2.92672505e+00  1.25160201e+00 -2.34339866e+00  2.92672505e+00  1.25160201e+00
 -2.34339866e+00  2.92672505e+00  1.25160201e+00 -2.34339866e+00  2.92672505e+00
  1.25160201e+00 -2.34339866e+00  2.92672505e+00  1.25160201e+00 -2.34339866e+00
  9.62774617e-01 -1.89984311e-01 -3.29402162e+00  9.62774617e-01 -1.89984311e-01
 -3.29402162e+00  9.62774617e-01 -1.89984311e-01 -3.29402162e+00  9.62774617e-01
 -1.89984311e-01 -3.29402162e+00  9.62774617e-01 -1.89984311e-01 -3.29402162e+00
  9.62774617e-01 -1.89984311e-01 -3.29402162e+00  9.62774617e-01 -1.89984311e-01
 -3.29402162e+00  9.62774617e-01 -1.89984311e-01 -3.29402162e+00 -6.53416670e-01
 -1.33214791e+00 -1.51020668e+00 -6.53416670e-01 -1.33214791e+00 -1.51020668e+00
 -6.53416670e-01 -1.33214791e+00 -1.51020668e+00 -6.53416670e-01 -1.33214791e+00
 -1.51020668e+00 -6.53416670e-01 -1.33214791e+00 -1.51020668e+00 -6.53416670e-01
 -1.33214791e+00 -1.51020668e+00 -6.53416670e-01 -1.33214791e+00 -1.51020668e+00
 -6.53416670e-01 -1.33214791e+00 -1.51020668e+00  5.48439145e+00  2.97778552e+00
  6.16337563e-01  5.48439145e+00  2.97778552e+00  6.16337563e-01  5.48439145e+00
  2.97778552e+00  6.16337563e-01  5.48439145e+00  2.97778552e+00  6.16337563e-01
  5.48439145e+00  2.97778552e+00  6.16337563e-01  5.48439145e+00  2.97778552e+00
  6.16337563e-01  5.48439145e+00  2.97778552e+00  6.16337563e-01  5.48439145e+00
  2.97778552e+00  6.16337563e-01 -4.40113537e+00  1.68308348e+00  4.52044314e+00
 -4.40113537e+00  1.68308348e+00  4.52044314e+00 -4.40113537e+00  1.68308348e+00
  4.52044314e+00 -4.40113537e+00  1.68308348e+00  4.52044314e+00 -4.40113537e+00
  1.68308348e+00  4.52044314e+00 -4.40113537e+00  1.68308348e+00  4.52044314e+00
 -4.40113537e+00  1.68308348e+00  4.52044314e+00 -4.40113537e+00  1.68308348e+00
  4.52044314e+00 -3.59680025e+00  1.53583002e+00  6.43137205e+00 -3.59680025e+00
  1.53583002e+00  6.43137205e+00 -6.25188817e+00  2.59434935e+00  4.67803084e+00
 -6.25188817e+00  2.59434935e+00  4.67803084e+00 -3.15342451e+00  2.89893643e+00
  3.40409444e+00 -3.15342451e+00  2.89893643e+00  3.40409444e+00 -5.52815601e+00
 -7.12155342e-01  1.44274454e+00 -5.52815601e+00 -7.12155342e-01  1.44274454e+00
 -5.80049083e+00 -2.69447144e+00  6.61067475e+00 -5.80049083e+00 -2.69447144e+00
  6.61067475e+00 -6.74274918e+00 -4.16148255e+00  4.05358503e+00 -6.74274918e+00
 -4.16148255e+00  4.05358503e+00  6.04499185e+00  4.02138618e+00 -1.81319396e+00
  6.04499185e+00  4.02138618e+00 -1.81319396e+00  6.04499185e+00  4.02138618e+00
 -1.81319396e+00  6.04499185e+00  4.02138618e+00 -1.81319396e+00  6.04499185e+00
  4.02138618e+00 -1.81319396e+00  6.04499185e+00  4.02138618e+00 -1.81319396e+00
  6.04499185e+00  4.02138618e+00 -1.81319396e+00  6.04499185e+00  4.02138618e+00
 -1.81319396e+00  4.80623384e+00  2.47670683e+00 -3.67026198e+00  4.80623384e+00
  2.47670683e+00 -3.67026198e+00  4.80623384e+00  2.47670683e+00 -3.67026198e+00
  4.80623384e+00  2.47670683e+00 -3.67026198e+00  4.80623384e+00  2.47670683e+00
 -3.67026198e+00  4.80623384e+00  2.47670683e+00 -3.67026198e+00  4.80623384e+00
  2.47670683e+00 -3.67026198e+00  4.80623384e+00  2.47670683e+00 -3.67026198e+00
  8.08074605e+00  3.97175152e+00 -2.13218715e+00  8.08074605e+00  3.97175152e+00
 -2.13218715e+00  5.28836979e+00  5.95477198e+00 -1.92838773e+00  5.28836979e+00
  5.95477198e+00 -1.92838773e+00  2.08574922e+00  6.54645915e-01  3.99729655e+00
  2.08574922e+00  6.54645915e-01  3.99729655e+00  7.14440929e-01 -4.10138219e-01
 -5.31288396e+00  7.14440929e-01 -4.10138219e-01 -5.31288396e+00 -2.67710559e+00
 -2.80501553e+00 -2.20465132e+00 -2.67710559e+00 -2.80501553e+00 -2.20465132e+00
 -2.67710559e+00 -2.80501553e+00 -2.20465132e+00 -2.67710559e+00 -2.80501553e+00
 -2.20465132e+00 -2.67710559e+00 -2.80501553e+00 -2.20465132e+00 -2.67710559e+00
 -2.80501553e+00 -2.20465132e+00 -2.67710559e+00 -2.80501553e+00 -2.20465132e+00
 -2.67710559e+00 -2.80501553e+00 -2.20465132e+00 -3.10541061e+00 -3.27087854e+00
 -4.81203382e+00 -3.10541061e+00 -3.27087854e+00 -4.81203382e+00 -3.10541061e+00
 -3.27087854e+00 -4.81203382e+00 -3.10541061e+00 -3.27087854e+00 -4.81203382e+00
 -3.10541061e+00 -3.27087854e+00 -4.81203382e+00 -3.10541061e+00 -3.27087854e+00
 -4.81203382e+00 -3.10541061e+00 -3.27087854e+00 -4.81203382e+00 -3.10541061e+00
 -3.27087854e+00 -4.81203382e+00 -3.49923162e+00 -1.51221855e+00 -5.84108520e+00
 -3.49923162e+00 -1.51221855e+00 -5.84108520e+00 -4.76263619e+00 -4.49616720e+00
 -4.89758044e+00 -4.76263619e+00 -4.49616720e+00 -4.89758044e+00 -1.48902960e+00
 -4.23687125e+00 -5.68422586e+00 -1.48902960e+00 -4.23687125e+00 -5.68422586e+00
Total Energy                               R     -7.086122523933809e+02
Alpha Orbital Energies                     R   N=         315
 -1.92024400e+01 -1.91989408e+01 -1.91909706e+01 -1.43171208e+01 -1.03103047e+01
 -1.02578178e+01 -1.02560812e+01 -1.02499285e+01 -1.02483484e+01 -1.02130292e+01
 -1.02042887e+01 -1.02023630e+01 -1.02008822e+01 -1.01864509e+01 -1.01708318e+01
 -1.13093008e+00 -1.07335738e+00 -1.03884230e+00 -8.86146316e-01 -8.66033250e-01
 -7.90057300e-01 -7.64593545e-01 -7.36984609e-01 -7.20219229e-01 -6.96516543e-01
 -6.56534361e-01 -6.24011805e-01 -6.14260753e-01 -5.78757708e-01 -5.43813565e-01
 -5.35046088e-01 -5.26403469e-01 -5.03187562e-01 -4.90122659e-01 -4.78589741e-01
 -4.69243448e-01 -4.60121420e-01 -4.57025303e-01 -4.50894221e-01 -4.28885216e-01
 -4.18374927e-01 -4.01515621e-01 -3.94858544e-01 -3.90186309e-01 -3.86089888e-01
 -3.67900057e-01 -3.63827864e-01 -3.62422789e-01 -3.58798197e-01 -3.48231451e-01
 -3.35699823e-01 -3.31161371e-01 -2.91169283e-01 -2.52706663e-01 -2.36123842e-01
 -2.00502996e-01 -1.56235788e-02 -8.57205416e-04  3.81504473e-03  9.42425417e-03
  1.30499842e-02  2.16792057e-02  2.79401249e-02  3.09825011e-02  3.23893502e-02
  4.19721629e-02  4.46710559e-02  4.67696416e-02  5.33895982e-02  5.85082345e-02
  6.55417713e-02  7.36130743e-02  7.92532537e-02  8.43001801e-02  9.18457255e-02
  9.58644493e-02  1.01949086e-01  1.04843482e-01  1.15782783e-01  1.16982176e-01
  1.21919697e-01  1.22875057e-01  1.27021431e-01  1.32671369e-01  1.40132095e-01
  1.40581463e-01  1.45238350e-01  1.52709005e-01  1.56725787e-01  1.58248794e-01
  1.60923931e-01  1.67833919e-01  1.71219339e-01  1.74989505e-01  1.83607626e-01
  1.85781519e-01  1.92284909e-01  1.96022398e-01  2.01530102e-01  2.03341903e-01
  2.11482410e-01  2.12734288e-01  2.16495438e-01  2.18356270e-01  2.25826871e-01
  2.28253429e-01  2.31420151e-01  2.39602169e-01  2.42708120e-01  2.46254991e-01
  2.49606409e-01  2.52370258e-01  2.58419199e-01  2.61259658e-01  2.71929797e-01
  2.78858808e-01  2.84782517e-01  2.86390343e-01  2.88294886e-01  2.92963628e-01
  2.99209782e-01  3.01070147e-01  3.04861698e-01  3.08178098e-01  3.09940447e-01