Generated by Psi4
     FORCE                           RHF                       TESTBAS
Number of atoms                            I               22
Charge                                     I                0
Multiplicity                               I                1
Number of electrons                        I               94
Number of alpha electrons                  I               47
Number of beta electrons                   I               47
Number of basis functions                  I              265
Number of independent functions            I              265
Atomic numbers                             I   N=          22
           6           6           6           6           6           6
           1           1           1           1           6           8
           8           1           7           6           6           1
           1           1           8           1
Nuclear charges                            R   N=          22
  6.00000000e+00  6.00000000e+00  6.00000000e+00  6.00000000e+00  6.00000000e+00
  6.00000000e+00  1.00000000e+00  1.00000000e+00  1.00000000e+00  1.00000000e+00
  6.00000000e+00  8.00000000e+00  8.00000000e+00  1.00000000e+00  7.00000000e+00
  6.00000000e+00  6.00000000e+00  1.00000000e+00  1.00000000e+00  1.00000000e+00
  8.00000000e+00  1.00000000e+00
Current cartesian coordinates              R   N=          66
  1.51966861e+00  1.68154327e+00 -1.76969444e-01  3.60484116e+00  2.60116821e+00
  1.18344578e+00  5.07350657e-01 -7.03251935e-01  4.66754770e-01  1.52826731e+00
 -2.06369356e+00  2.49332581e+00  3.54952043e+00 -1.07870907e+00  3.86551885e+00
  4.60773882e+00  1.24995443e+00  3.20361706e+00  7.25666875e-01 -3.87952417e+00
  2.98946115e+00  4.39084380e+00  4.41172017e+00  6.28057615e-01  4.31330468e+00
 -2.15252603e+00  5.44038751e+00  6.19910173e+00  2.00618824e+00  4.25671647e+00
  5.24153990e-01  3.38947558e+00 -2.22508038e+00  1.81903157e+00  4.95902087e+00
 -3.26852911e+00 -1.95923202e+00  3.17794106e+00 -2.84777717e+00 -2.76728988e+00
  1.88000704e+00 -1.81589276e+00 -1.48910949e+00 -1.75922735e+00 -1.02551980e+00
 -3.42753839e+00 -3.30024982e+00 -1.33686497e-01 -4.97842744e+00 -4.56831357e+00
 -2.18954962e+00 -6.93538959e+00 -4.70928959e+00 -1.54757727e+00 -4.26683825e+00
 -6.49428537e+00 -2.47902512e+00 -4.91739144e+00 -3.57176213e+00 -4.00266857e+00
 -3.85547795e+00 -3.59877156e+00  2.11209158e+00 -1.17160275e+00 -1.82680544e+00
 -2.91481309e+00
Integer atomic weights                     I   N=          22
          12          12          12          12          12          12
           1           1           1           1          12          15
          15           1          14          12          12           1
           1           1          15           1
Real atomic weights                        R   N=          22
  1.20000000e+01  1.20000000e+01  1.20000000e+01  1.20000000e+01  1.20000000e+01
  1.20000000e+01  1.00782503e+00  1.00782503e+00  1.00782503e+00  1.00782503e+00
  1.20000000e+01  1.59949146e+01  1.59949146e+01  1.00782503e+00  1.40030740e+01
  1.20000000e+01  1.20000000e+01  1.00782503e+00  1.00782503e+00  1.00782503e+00
  1.59949146e+01  1.00782503e+00
Number of primitive shells                 I              257
Number of contracted shells                I              122
Pure/Cartesian d shells                    I                1
Pure/Cartesian f shells                    I                1
Highest angular momentum                   I                2
Largest degree of contraction              I                6
Shell types                                I   N=         122
           0           0           1           0           1           2
           0           1           0           0           1           0
           1           2           0           1           0           0
           1           0           1           2           0           1
           0           0           1           0           1           2
           0           1           0           0           1           0
           1           2           0           1           0           0
           1           0           1           2           0           1
           0           0           0           0           0           0
           0           0           0           0           1           0
           1           2           0           1           0           0
           1           0           1           2           0           1
           0           0           1           0           1           2
           0           1           0           0           0           0
           1           0           1           2           0           1
           0           0           1           0           1           2
           0           1           0           0           1           0
           1           2           0           1           0           0
           0           0           0           0           0           0
           1           0           1           2           0           1
           0           0
Number of primitives per shell             I   N=         122
           6           3           3           1           1           1
           1           1           6           3           3           1
           1           1           1           1           6           3
           3           1           1           1           1           1
           6           3           3           1           1           1
           1           1           6           3           3           1
           1           1           1           1           6           3
           3           1           1           1           1           1
           3           1           3           1           3           1
           3           1           6           3           3           1
           1           1           1           1           6           3
           3           1           1           1           1           1
           6           3           3           1           1           1
           1           1           3           1           6           3
           3           1           1           1           1           1
           6           3           3           1           1           1
           1           1           6           3           3           1
           1           1           1           1           3           1
           3           1           3           1           6           3
           3           1           1           1           1           1
           3           1
Shell to atom map                          I   N=         122
           1           1           1           1           1           1
           1           1           2           2           2           2
           2           2           2           2           3           3
           3           3           3           3           3           3
           4           4           4           4           4           4
           4           4           5           5           5           5
           5           5           5           5           6           6
           6           6           6           6           6           6
           7           7           8           8           9           9
          10          10          11          11          11          11
          11          11          11          11          12          12
          12          12          12          12          12          12
          13          13          13          13          13          13
          13          13          14          14          15          15
          15          15          15          15          15          15
          16          16          16          16          16          16
          16          16          17          17          17          17
          17          17          17          17          18          18
          19          19          20          20          21          21
          21          21          21          21          21          21
          22          22
Primitive exponents                        R   N=         257
  3.04752490e+03  4.57369510e+02  1.03948690e+02  2.92101550e+01  9.28666300e+00
  3.16392700e+00  7.86827240e+00  1.88128850e+00  5.44249300e-01  7.86827240e+00
  1.88128850e+00  5.44249300e-01  1.68714400e-01  1.68714400e-01  8.00000000e-01
  4.38000000e-02  4.38000000e-02  3.04752490e+03  4.57369510e+02  1.03948690e+02
  2.92101550e+01  9.28666300e+00  3.16392700e+00  7.86827240e+00  1.88128850e+00
  5.44249300e-01  7.86827240e+00  1.88128850e+00  5.44249300e-01  1.68714400e-01
  1.68714400e-01  8.00000000e-01  4.38000000e-02  4.38000000e-02  3.04752490e+03
  4.57369510e+02  1.03948690e+02  2.92101550e+01  9.28666300e+00  3.16392700e+00
  7.86827240e+00  1.88128850e+00  5.44249300e-01  7.86827240e+00  1.88128850e+00
  5.44249300e-01  1.68714400e-01  1.68714400e-01  8.00000000e-01  4.38000000e-02
  4.38000000e-02  3.04752490e+03  4.57369510e+02  1.03948690e+02  2.92101550e+01
  9.28666300e+00  3.16392700e+00  7.86827240e+00  1.88128850e+00  5.44249300e-01
  7.86827240e+00  1.88128850e+00  5.44249300e-01  1.68714400e-01  1.68714400e-01
  8.00000000e-01  4.38000000e-02  4.38000000e-02  3.04752490e+03  4.57369510e+02
  1.03948690e+02  2.92101550e+01  9.28666300e+00  3.16392700e+00  7.86827240e+00
  1.88128850e+00  5.44249300e-01  7.86827240e+00  1.88128850e+00  5.44249300e-01
  1.68714400e-01  1.68714400e-01  8.00000000e-01  4.38000000e-02  4.38000000e-02
  3.04752490e+03  4.57369510e+02  1.03948690e+02  2.92101550e+01  9.28666300e+00
  3.16392700e+00  7.86827240e+00  1.88128850e+00  5.44249300e-01  7.86827240e+00
  1.88128850e+00  5.44249300e-01  1.68714400e-01  1.68714400e-01  8.00000000e-01
  4.38000000e-02  4.38000000e-02  1.87311370e+01  2.82539370e+00  6.40121700e-01
  1.61277800e-01  1.87311370e+01  2.82539370e+00  6.40121700e-01  1.61277800e-01
  1.87311370e+01  2.82539370e+00  6.40121700e-01  1.61277800e-01  1.87311370e+01
  2.82539370e+00  6.40121700e-01  1.61277800e-01  3.04752490e+03  4.57369510e+02
  1.03948690e+02  2.92101550e+01  9.28666300e+00  3.16392700e+00  7.86827240e+00
  1.88128850e+00  5.44249300e-01  7.86827240e+00  1.88128850e+00  5.44249300e-01
  1.68714400e-01  1.68714400e-01  8.00000000e-01  4.38000000e-02  4.38000000e-02
  5.48467170e+03  8.25234950e+02  1.88046960e+02  5.29645000e+01  1.68975700e+01
  5.79963530e+00  1.55396160e+01  3.59993360e+00  1.01376180e+00  1.55396160e+01
  3.59993360e+00  1.01376180e+00  2.70005800e-01  2.70005800e-01  8.00000000e-01
  8.45000000e-02  8.45000000e-02  5.48467170e+03  8.25234950e+02  1.88046960e+02
  5.29645000e+01  1.68975700e+01  5.79963530e+00  1.55396160e+01  3.59993360e+00
  1.01376180e+00  1.55396160e+01  3.59993360e+00  1.01376180e+00  2.70005800e-01
  2.70005800e-01  8.00000000e-01  8.45000000e-02  8.45000000e-02  1.87311370e+01
  2.82539370e+00  6.40121700e-01  1.61277800e-01  4.17351100e+03  6.27457900e+02
  1.42902100e+02  4.02343300e+01  1.28202100e+01  4.39043700e+00  1.16263580e+01
  2.71628000e+00  7.72218000e-01  1.16263580e+01  2.71628000e+00  7.72218000e-01
  2.12031300e-01  2.12031300e-01  8.00000000e-01  6.39000000e-02  6.39000000e-02
  3.04752490e+03  4.57369510e+02  1.03948690e+02  2.92101550e+01  9.28666300e+00
  3.16392700e+00  7.86827240e+00  1.88128850e+00  5.44249300e-01  7.86827240e+00
  1.88128850e+00  5.44249300e-01  1.68714400e-01  1.68714400e-01  8.00000000e-01
  4.38000000e-02  4.38000000e-02  3.04752490e+03  4.57369510e+02  1.03948690e+02
  2.92101550e+01  9.28666300e+00  3.16392700e+00  7.86827240e+00  1.88128850e+00
  5.44249300e-01  7.86827240e+00  1.88128850e+00  5.44249300e-01  1.68714400e-01
  1.68714400e-01  8.00000000e-01  4.38000000e-02  4.38000000e-02  1.87311370e+01
  2.82539370e+00  6.40121700e-01  1.61277800e-01  1.87311370e+01  2.82539370e+00
  6.40121700e-01  1.61277800e-01  1.87311370e+01  2.82539370e+00  6.40121700e-01
  1.61277800e-01  5.48467170e+03  8.25234950e+02  1.88046960e+02  5.29645000e+01
  1.68975700e+01  5.79963530e+00  1.55396160e+01  3.59993360e+00  1.01376180e+00
  1.55396160e+01  3.59993360e+00  1.01376180e+00  2.70005800e-01  2.70005800e-01
  8.00000000e-01  8.45000000e-02  8.45000000e-02  1.87311370e+01  2.82539370e+00
  6.40121700e-01  1.61277800e-01
Contraction coefficients                   R   N=         257
  1.83470016e-03  1.40373012e-02  6.88426061e-02  2.32184421e-01  4.67941342e-01
  3.62312032e-01 -1.19332409e-01 -1.60854212e-01  1.14345648e+00  6.89990956e-02
  3.16423980e-01  7.44308252e-01  1.00000000e+00  1.00000000e+00  1.00000000e+00
  1.00000000e+00  1.00000000e+00  1.83470016e-03  1.40373012e-02  6.88426061e-02
  2.32184421e-01  4.67941342e-01  3.62312032e-01 -1.19332409e-01 -1.60854212e-01
  1.14345648e+00  6.89990956e-02  3.16423980e-01  7.44308252e-01  1.00000000e+00
  1.00000000e+00  1.00000000e+00  1.00000000e+00  1.00000000e+00  1.83470016e-03
  1.40373012e-02  6.88426061e-02  2.32184421e-01  4.67941342e-01  3.62312032e-01
 -1.19332409e-01 -1.60854212e-01  1.14345648e+00  6.89990956e-02  3.16423980e-01
  7.44308252e-01  1.00000000e+00  1.00000000e+00  1.00000000e+00  1.00000000e+00
  1.00000000e+00  1.83470016e-03  1.40373012e-02  6.88426061e-02  2.32184421e-01
  4.67941342e-01  3.62312032e-01 -1.19332409e-01 -1.60854212e-01  1.14345648e+00
  6.89990956e-02  3.16423980e-01  7.44308252e-01  1.00000000e+00  1.00000000e+00
  1.00000000e+00  1.00000000e+00  1.00000000e+00  1.83470016e-03  1.40373012e-02
  6.88426061e-02  2.32184421e-01  4.67941342e-01  3.62312032e-01 -1.19332409e-01
 -1.60854212e-01  1.14345648e+00  6.89990956e-02  3.16423980e-01  7.44308252e-01
  1.00000000e+00  1.00000000e+00  1.00000000e+00  1.00000000e+00  1.00000000e+00
  1.83470016e-03  1.40373012e-02  6.88426061e-02  2.32184421e-01  4.67941342e-01
  3.62312032e-01 -1.19332409e-01 -1.60854212e-01  1.14345648e+00  6.89990956e-02
  3.16423980e-01  7.44308252e-01  1.00000000e+00  1.00000000e+00  1.00000000e+00
  1.00000000e+00  1.00000000e+00  3.34945995e-02  2.34726947e-01  8.13757318e-01
  1.00000000e+00  3.34945995e-02  2.34726947e-01  8.13757318e-01  1.00000000e+00
  3.34945995e-02  2.34726947e-01  8.13757318e-01  1.00000000e+00  3.34945995e-02
  2.34726947e-01  8.13757318e-01  1.00000000e+00  1.83470016e-03  1.40373012e-02
  6.88426061e-02  2.32184421e-01  4.67941342e-01  3.62312032e-01 -1.19332409e-01
 -1.60854212e-01  1.14345648e+00  6.89990956e-02  3.16423980e-01  7.44308252e-01
  1.00000000e+00  1.00000000e+00  1.00000000e+00  1.00000000e+00  1.00000000e+00
  1.83109981e-03  1.39500985e-02  6.84450927e-02  2.32714275e-01  4.70192950e-01
  3.58520862e-01 -1.10777504e-01 -1.48026305e-01  1.13076704e+00  7.08742995e-02
  3.39752798e-01  7.27158595e-01  1.00000000e+00  1.00000000e+00  1.00000000e+00
  1.00000000e+00  1.00000000e+00  1.83109981e-03  1.39500985e-02  6.84450927e-02
  2.32714275e-01  4.70192950e-01  3.58520862e-01 -1.10777504e-01 -1.48026305e-01
  1.13076704e+00  7.08742995e-02  3.39752798e-01  7.27158595e-01  1.00000000e+00
  1.00000000e+00  1.00000000e+00  1.00000000e+00  1.00000000e+00  3.34945995e-02
  2.34726947e-01  8.13757318e-01  1.00000000e+00  1.83479944e-03  1.39949958e-02
  6.85869792e-02  2.32240930e-01  4.69069858e-01  3.60454891e-01 -1.14961023e-01
 -1.69118034e-01  1.14585223e+00  6.75800232e-02  3.23907111e-01  7.40895255e-01
  1.00000000e+00  1.00000000e+00  1.00000000e+00  1.00000000e+00  1.00000000e+00
  1.83470016e-03  1.40373012e-02  6.88426061e-02  2.32184421e-01  4.67941342e-01
  3.62312032e-01 -1.19332409e-01 -1.60854212e-01  1.14345648e+00  6.89990956e-02
  3.16423980e-01  7.44308252e-01  1.00000000e+00  1.00000000e+00  1.00000000e+00
  1.00000000e+00  1.00000000e+00  1.83470016e-03  1.40373012e-02  6.88426061e-02
  2.32184421e-01  4.67941342e-01  3.62312032e-01 -1.19332409e-01 -1.60854212e-01
  1.14345648e+00  6.89990956e-02  3.16423980e-01  7.44308252e-01  1.00000000e+00
  1.00000000e+00  1.00000000e+00  1.00000000e+00  1.00000000e+00  3.34945995e-02
  2.34726947e-01  8.13757318e-01  1.00000000e+00  3.34945995e-02  2.34726947e-01
  8.13757318e-01  1.00000000e+00  3.34945995e-02  2.34726947e-01  8.13757318e-01
  1.00000000e+00  1.83109981e-03  1.39500985e-02  6.84450927e-02  2.32714275e-01
  4.70192950e-01  3.58520862e-01 -1.10777504e-01 -1.48026305e-01  1.13076704e+00
  7.08742995e-02  3.39752798e-01  7.27158595e-01  1.00000000e+00  1.00000000e+00
  1.00000000e+00  1.00000000e+00  1.00000000e+00  3.34945995e-02  2.34726947e-01
  8.13757318e-01  1.00000000e+00
Coordinates of each shell                  R   N=         366
  1.51966861e+00  1.68154327e+00 -1.76969444e-01  1.51966861e+00  1.68154327e+00
 -1.76969444e-01  1.51966861e+00  1.68154327e+00 -1.76969444e-01  1.51966861e+00
  1.68154327e+00 -1.76969444e-01  1.51966861e+00  1.68154327e+00 -1.76969444e-01
  1.51966861e+00  1.68154327e+00 -1.76969444e-01  1.51966861e+00  1.68154327e+00
 -1.76969444e-01  1.51966861e+00  1.68154327e+00 -1.76969444e-01  3.60484116e+00
  2.60116821e+00  1.18344578e+00  3.60484116e+00  2.60116821e+00  1.18344578e+00
  3.60484116e+00  2.60116821e+00  1.18344578e+00  3.60484116e+00  2.60116821e+00
  1.18344578e+00  3.60484116e+00  2.60116821e+00  1.18344578e+00  3.60484116e+00
  2.60116821e+00  1.18344578e+00  3.60484116e+00  2.60116821e+00  1.18344578e+00
  3.60484116e+00  2.60116821e+00  1.18344578e+00  5.07350657e-01 -7.03251935e-01
  4.66754770e-01  5.07350657e-01 -7.03251935e-01  4.66754770e-01  5.07350657e-01
 -7.03251935e-01  4.66754770e-01  5.07350657e-01 -7.03251935e-01  4.66754770e-01
  5.07350657e-01 -7.03251935e-01  4.66754770e-01  5.07350657e-01 -7.03251935e-01
  4.66754770e-01  5.07350657e-01 -7.03251935e-01  4.66754770e-01  5.07350657e-01
 -7.03251935e-01  4.66754770e-01  1.52826731e+00 -2.06369356e+00  2.49332581e+00
  1.52826731e+00 -2.06369356e+00  2.49332581e+00  1.52826731e+00 -2.06369356e+00
  2.49332581e+00  1.52826731e+00 -2.06369356e+00  2.49332581e+00  1.52826731e+00
 -2.06369356e+00  2.49332581e+00  1.52826731e+00 -2.06369356e+00  2.49332581e+00
  1.52826731e+00 -2.06369356e+00  2.49332581e+00  1.52826731e+00 -2.06369356e+00
  2.49332581e+00  3.54952043e+00 -1.07870907e+00  3.86551885e+00  3.54952043e+00
 -1.07870907e+00  3.86551885e+00  3.54952043e+00 -1.07870907e+00  3.86551885e+00
  3.54952043e+00 -1.07870907e+00  3.86551885e+00  3.54952043e+00 -1.07870907e+00
  3.86551885e+00  3.54952043e+00 -1.07870907e+00  3.86551885e+00  3.54952043e+00
 -1.07870907e+00  3.86551885e+00  3.54952043e+00 -1.07870907e+00  3.86551885e+00
  4.60773882e+00  1.24995443e+00  3.20361706e+00  4.60773882e+00  1.24995443e+00
  3.20361706e+00  4.60773882e+00  1.24995443e+00  3.20361706e+00  4.60773882e+00
  1.24995443e+00  3.20361706e+00  4.60773882e+00  1.24995443e+00  3.20361706e+00
  4.60773882e+00  1.24995443e+00  3.20361706e+00  4.60773882e+00  1.24995443e+00
  3.20361706e+00  4.60773882e+00  1.24995443e+00  3.20361706e+00  7.25666875e-01
 -3.87952417e+00  2.98946115e+00  7.25666875e-01 -3.87952417e+00  2.98946115e+00
  4.39084380e+00  4.41172017e+00  6.28057615e-01  4.39084380e+00  4.41172017e+00
  6.28057615e-01  4.31330468e+00 -2.15252603e+00  5.44038751e+00  4.31330468e+00
 -2.15252603e+00  5.44038751e+00  6.19910173e+00  2.00618824e+00  4.25671647e+00
  6.19910173e+00  2.00618824e+00  4.25671647e+00  5.24153990e-01  3.38947558e+00
 -2.22508038e+00  5.24153990e-01  3.38947558e+00 -2.22508038e+00  5.24153990e-01
  3.38947558e+00 -2.22508038e+00  5.24153990e-01  3.38947558e+00 -2.22508038e+00
  5.24153990e-01  3.38947558e+00 -2.22508038e+00  5.24153990e-01  3.38947558e+00
 -2.22508038e+00  5.24153990e-01  3.38947558e+00 -2.22508038e+00  5.24153990e-01
  3.38947558e+00 -2.22508038e+00  1.81903157e+00  4.95902087e+00 -3.26852911e+00
  1.81903157e+00  4.95902087e+00 -3.26852911e+00  1.81903157e+00  4.95902087e+00
 -3.26852911e+00  1.81903157e+00  4.95902087e+00 -3.26852911e+00  1.81903157e+00
  4.95902087e+00 -3.26852911e+00  1.81903157e+00  4.95902087e+00 -3.26852911e+00
  1.81903157e+00  4.95902087e+00 -3.26852911e+00  1.81903157e+00  4.95902087e+00
 -3.26852911e+00 -1.95923202e+00  3.17794106e+00 -2.84777717e+00 -1.95923202e+00
  3.17794106e+00 -2.84777717e+00 -1.95923202e+00  3.17794106e+00 -2.84777717e+00
 -1.95923202e+00  3.17794106e+00 -2.84777717e+00 -1.95923202e+00  3.17794106e+00
 -2.84777717e+00 -1.95923202e+00  3.17794106e+00 -2.84777717e+00 -1.95923202e+00
  3.17794106e+00 -2.84777717e+00 -1.95923202e+00  3.17794106e+00 -2.84777717e+00
 -2.76728988e+00  1.88000704e+00 -1.81589276e+00 -2.76728988e+00  1.88000704e+00
 -1.81589276e+00 -1.48910949e+00 -1.75922735e+00 -1.02551980e+00 -1.48910949e+00
 -1.75922735e+00 -1.02551980e+00 -1.48910949e+00 -1.75922735e+00 -1.02551980e+00
 -1.48910949e+00 -1.75922735e+00 -1.02551980e+00 -1.48910949e+00 -1.75922735e+00
 -1.02551980e+00 -1.48910949e+00 -1.75922735e+00 -1.02551980e+00 -1.48910949e+00
 -1.75922735e+00 -1.02551980e+00 -1.48910949e+00 -1.75922735e+00 -1.02551980e+00
 -3.42753839e+00 -3.30024982e+00 -1.33686497e-01 -3.42753839e+00 -3.30024982e+00
 -1.33686497e-01 -3.42753839e+00 -3.30024982e+00 -1.33686497e-01 -3.42753839e+00
 -3.30024982e+00 -1.33686497e-01 -3.42753839e+00 -3.30024982e+00 -1.33686497e-01
 -3.42753839e+00 -3.30024982e+00 -1.33686497e-01 -3.42753839e+00 -3.30024982e+00
 -1.33686497e-01 -3.42753839e+00 -3.30024982e+00 -1.33686497e-01 -4.97842744e+00
 -4.56831357e+00 -2.18954962e+00 -4.97842744e+00 -4.56831357e+00 -2.18954962e+00
 -4.97842744e+00 -4.56831357e+00 -2.18954962e+00 -4.97842744e+00 -4.56831357e+00
 -2.18954962e+00 -4.97842744e+00 -4.56831357e+00 -2.18954962e+00 -4.97842744e+00
 -4.56831357e+00 -2.18954962e+00 -4.97842744e+00 -4.56831357e+00 -2.18954962e+00
 -4.97842744e+00 -4.56831357e+00 -2.18954962e+00 -6.93538959e+00 -4.70928959e+00
 -1.54757727e+00 -6.93538959e+00 -4.70928959e+00 -1.54757727e+00 -4.26683825e+00
 -6.49428537e+00 -2.47902512e+00 -4.26683825e+00 -6.49428537e+00 -2.47902512e+00
 -4.91739144e+00 -3.57176213e+00 -4.00266857e+00 -4.91739144e+00 -3.57176213e+00
 -4.00266857e+00 -3.85547795e+00 -3.59877156e+00  2.11209158e+00 -3.85547795e+00
 -3.59877156e+00  2.11209158e+00 -3.85547795e+00 -3.59877156e+00  2.11209158e+00
 -3.85547795e+00 -3.59877156e+00  2.11209158e+00 -3.85547795e+00 -3.59877156e+00
  2.11209158e+00 -3.85547795e+00 -3.59877156e+00  2.11209158e+00 -3.85547795e+00
 -3.59877156e+00  2.11209158e+00 -3.85547795e+00 -3.59877156e+00  2.11209158e+00
 -1.17160275e+00 -1.82680544e+00 -2.91481309e+00 -1.17160275e+00 -1.82680544e+00
 -2.91481309e+00
Total Energy                               R     -6.288518061113000e+02
Alpha Orbital Energies                     R   N=         265
 -1.92121495e+01 -1.91549854e+01 -1.91531459e+01 -1.44112509e+01 -1.03394690e+01
 -1.03289480e+01 -1.02732834e+01 -1.02358884e+01 -1.02236644e+01 -1.02215117e+01
 -1.02209101e+01 -1.02202004e+01 -1.02181606e+01 -1.11595652e+00 -1.07318894e+00
 -1.03403267e+00 -9.71723317e-01 -8.81319104e-01 -7.94392797e-01 -7.86122957e-01
 -7.53210877e-01 -6.67556028e-01 -6.57883833e-01 -6.29505078e-01 -6.03494097e-01
 -5.83973955e-01 -5.41189401e-01 -5.11446069e-01 -4.99038626e-01 -4.91030796e-01
 -4.74156025e-01 -4.63464815e-01 -4.55199663e-01 -4.50405135e-01 -4.39327077e-01
 -4.30708147e-01 -4.18125717e-01 -4.10220933e-01 -3.88895727e-01 -3.82962727e-01
 -3.80229800e-01 -3.34194941e-01 -3.25438020e-01 -2.97316267e-01 -2.89298331e-01
 -2.77185340e-01 -2.64841436e-01 -7.03811984e-02 -4.44749201e-02 -2.13388311e-02
 -5.89927136e-03  3.77483771e-03  1.48855321e-02  1.91671573e-02  2.39716384e-02
  2.56778991e-02  3.63540229e-02  4.83513325e-02  4.89115174e-02  5.38538017e-02
  5.97862129e-02  6.39650390e-02  7.66416342e-02  7.84559032e-02  8.84118852e-02
  9.00268358e-02  9.69297452e-02  1.03584256e-01  1.12508866e-01  1.20376236e-01
  1.23855036e-01  1.28292943e-01  1.35264296e-01  1.37932170e-01  1.45127652e-01
  1.49236832e-01  1.49954026e-01  1.53233916e-01  1.71345225e-01  1.74415796e-01
  1.83341183e-01  1.86383416e-01  1.89964972e-01  1.94435100e-01  1.99930076e-01
  2.05101859e-01  2.13668031e-01  2.14904667e-01  2.19030667e-01  2.22677052e-01
  2.27512959e-01  2.33430224e-01  2.37496062e-01  2.43117724e-01  2.50834214e-01
  2.54095643e-01  2.59810371e-01  2.60553384e-01  2.73058709e-01  2.75076279e-01
  2.85472421e-01  2.87807545e-01  2.90280105e-01  2.95532815e-01  2.99476408e-01
  3.10367309e-01  3.14550532e-01  3.17575439e-01  3.21283426e-01  3.30314372e-01
  3.35845519e-01  3.44963127e-01  3.56643416e-01  3.60160376e-01  3.71808658e-01
  3.78870617e-01  3.83538819e-01  3.89121249e-01  3.96314306e-01  4.13018191e-01
  4.18542279e-01  4.50673874e-01  4.88755318e-01  5.02897405e-01  5.74738152e-01
  6.05263622e-01  6.42804428e-01  6.51422826e-01  6.65150256e-01  6.72282295e-01
  6.84304999e-01  6.98493532e-01  7.08172130e-01  7.18708545e-01  7.25667132e-01
  7.29604863e-01  7.43692502e-01  7.53268787e-01  7.68035560e-01  7.78132735e-01
  7.92776187e-01  8.13133966e-01  8.16418153e-01  8.32417322e-01  8.59890102e-01
  8.84641533e-01  8.98592979e-01  9.15542392e-01  9.24210592e-01  9.31590451e-01
  9.55171281e-01  9.70207178e-01  9.70997300e-01  1.00197938e+00  1.01533504e+00
  1.02178352e+00  1.03756863e+00  1.05093172e+00  1.08309526e+00  1.09800591e+00
  1.11479593e+00  1.12083555e+00  1.13247429e+00  1.14523260e+00  1.17055678e+00
  1.18013121e+00  1.18667931e+00  1.20337602e+00  1.21121032e+00  1.23877198e+00
  1.25400577e+00  1.26729351e+00  1.27877760e+00  1.29766167e+00  1.31687787e+00
  1.33080834e+00  1.34586342e+00  1.35305895e+00  1.36667900e+00  1.37585841e+00
  1.39296923e+00  1.41205805e+00  1.42126875e+00  1.43308910e+00  1.44229218e+00
  1.45405069e+00  1.46276204e+00  1.46838695e+00  1.48234105e+00  1.49420709e+00
  1.56524656e+00  1.62004201e+00  1.65297593e+00  1.68873455e+00  1.72005740e+00
  1.72210377e+00  1.74841514e+00  1.76891554e+00  1.78817149e+00  1.79795772e+00
  1.79923236e+00  1.83699479e+00  1.85028390e+00  1.85863895e+00  1.86724719e+00
  1.89538701e+00  1.93151124e+00  1.94890403e+00  1.95097366e+00  1.95701958e+00
  1.97502099e+00  2.00434119e+00  2.01994929e+00  2.04005828e+00  2.06447977e+00
  2.09345463e+00  2.13154524e+00  2.14022849e+00  2.15928235e+00  2.19360814e+00
  2.22922008e+00  2.23640600e+00  2.26787700e+00  2.27137312e+00  2.29726915e+00
  2.32633380e+00  2.37815744e+00  2.38506439e+00  2.40881322e+00  2.42885937e+00
  2.46241083e+00  2.51669839e+00  2.53137659e+00  2.57622878e+00  2.61060935e+00
  2.62388291e+00  2.64688237e+00  2.66668608e+00  2.68672259e+00  2.71096455e+00
  2.75182744e+00  2.79275112e+00  2.80773919e+00  2.83996759e+00  2.90024175e+00
  2.95733977e+00  3.05903409e+00  3.09629491e+00  3.12617009e+00  3.18070230e+00
  3.24823346e+00  3.41136122e+00  4.11281293e+00  4.17682017e+00  4.22742334e+00
  4.24744701e+00  4.27204370e+00  4.27759970e+00  4.34258515e+00  4.36833174e+00
  4.44485846e+00  4.48713779e+00  4.56228569e+00  4.57401912e+00  4.75501454e+00
Alpha MO coefficients                      R   N=       70225
  5.59174847e-06  9.20199645e-05  8.32908036e-06 -3.27613282e-07 -2.08250826e-05
 -3.22667416e-04  4.64405736e-04 -2.24007040e-04  7.37169453e-04 -4.30397503e-05
 -7.97346871e-06 -1.60194399e-05  1.34408123e-05 -3.99988231e-05  1.28484153e-05
  2.64541794e-02 -1.61492527e-02 -2.28560978e-02  2.33096524e-04  6.14487744e-06
  3.16426577e-05 -5.76675260e-06 -1.20779026e-05 -2.16540035e-05 -4.05142847e-04
  3.09102898e-04  2.43432858e-04  1.66285219e-04 -2.00736381e-06  8.97820946e-06
  1.41391153e-05 -3.59201847e-06 -7.87422888e-10  4.77317998e-06  2.35334455e-03
 -1.17448666e-02  4.28570741e-03 -1.56088747e-02  1.65083293e-05  4.56338960e-05
 -7.58369750e-06  2.02626833e-06  1.07258095e-05 -8.35634824e-04 -2.92331747e-04
  1.56242798e-04 -6.01000024e-04  2.66840349e-05  3.30684674e-05  4.03086051e-05
 -1.50890274e-05  9.07897398e-06 -1.48351879e-05 -2.57780181e-02 -1.60713286e-03
 -2.74091506e-02  1.66220734e-02 -1.23717820e-06 -1.08458359e-05 -3.28791514e-06
  2.49907459e-06 -1.91465769e-06  4.46652034e-04 -1.44652696e-04  2.67845536e-04
 -3.10578081e-04  2.13480285e-06  3.86949636e-06 -5.01632593e-06 -3.04569656e-06
  1.11616596e-07 -4.58390149e-06 -1.53876223e-02  1.12221669e-02 -5.67581447e-04
  1.29633169e-02 -3.32234567e-07 -9.96774211e-07  5.83111631e-06  6.52538518e-06
  3.07154851e-06 -7.16843598e-05 -8.23250767e-05 -1.88354071e-04  4.52982507e-05
 -2.09159395e-07 -5.80825708e-07 -1.83302948e-06  1.88089950e-06  1.68845894e-06
  1.57348865e-06 -6.31884027e-03  8.04521033e-03  7.70293276e-03  1.95030239e-03
  6.78838529e-07  4.45232852e-06 -1.67517256e-06 -2.66349988e-06 -1.59144749e-06
  1.21722449e-04 -7.00707072e-05 -1.39598518e-04  3.63472389e-05  9.00120075e-07
 -1.12101239e-06  6.55670986e-07 -2.91619347e-07 -1.99356132e-06  2.02680128e-06
  1.43446952e-02 -1.08726529e-03  1.01074533e-02 -7.96319705e-03 -1.32194606e-05
  1.54750614e-04  9.71147059e-06 -1.97704409e-04 -4.19448598e-06 -4.11440865e-05
  6.15842785e-06 -1.47461870e-06 -5.33025052e-05  5.26230999e-05 -3.84706169e-04
 -1.50659251e-05 -1.31726027e-04  5.54591302e-04  1.65126195e-04 -6.14859664e-04
  6.88411688e-04  2.33057215e-04 -1.14030867e-04 -9.64489513e-05  2.96983256e-05
  1.09156208e-04 -1.96646544e-05  6.31245418e-03 -2.47333762e-03 -1.47269830e-03
  2.87107153e-04 -3.28605649e-05  1.01782537e-04  2.35995311e-06  2.77368576e-06
 -6.98193910e-07 -1.07049423e-04 -8.45880648e-05 -3.97716588e-05 -4.81725642e-07
 -5.23423572e-05  4.63758050e-05  5.92655255e-05 -4.73659738e-05 -2.84453144e-06
  2.04917229e-05  2.04761304e-03 -4.85172939e-04 -1.88773822e-04  1.04636819e-06
  9.92528193e-01  2.52469161e-02  4.72387812e-04 -6.44908382e-04  8.00232466e-04
  1.57428629e-02 -4.09867509e-04  3.97759710e-04 -5.88920065e-04 -8.90672781e-03
 -8.72470251e-03 -8.71560170e-03 -1.73761400e-05 -7.21078932e-05  3.05318331e-05