Generated by Psi4
     FORCE                           RHF                       TESTBAS
Number of atoms                            I               34
Charge                                     I                0
Multiplicity                               I                1
Number of electrons                        I              112
Number of alpha electrons                  I               56
Number of beta electrons                   I               56
Number of basis functions                  I              323
Number of independent functions            I              323
Atomic numbers                             I   N=          34
           6           6           6           7           6           6
           6           6           6           1           1           1
           1           1           6           1           1           6
           1           8           6           1           6           1
           1           1           1           1           1           1
           6           1           1           1
Nuclear charges                            R   N=          34
  6.00000000e+00  6.00000000e+00  6.00000000e+00  7.00000000e+00  6.00000000e+00
  6.00000000e+00  6.00000000e+00  6.00000000e+00  6.00000000e+00  1.00000000e+00
  1.00000000e+00  1.00000000e+00  1.00000000e+00  1.00000000e+00  6.00000000e+00
  1.00000000e+00  1.00000000e+00  6.00000000e+00  1.00000000e+00  8.00000000e+00
  6.00000000e+00  1.00000000e+00  6.00000000e+00  1.00000000e+00  1.00000000e+00
  1.00000000e+00  1.00000000e+00  1.00000000e+00  1.00000000e+00  1.00000000e+00
  6.00000000e+00  1.00000000e+00  1.00000000e+00  1.00000000e+00
Current cartesian coordinates              R   N=         102
  9.98403918e-01 -1.33113394e+00 -2.43004855e+00 -1.54522224e+00 -2.54034286e-01
 -1.76114287e+00 -2.07335527e+00  8.15585730e-01  8.91006852e-01 -1.48769881e+00
 -1.11661751e+00  2.79198376e+00  3.22892993e+00 -7.33153554e-01 -1.12175880e+00
  5.54270356e+00 -1.75715413e+00 -1.87464261e+00  5.65079628e+00 -3.41389468e+00
 -3.92726265e+00  3.43866212e+00 -4.02391027e+00 -5.24229722e+00  1.13630182e+00
 -2.97803021e+00 -4.50900749e+00  3.19330552e+00  5.79064307e-01  4.54903257e-01
 -5.91825608e-01 -3.41618448e+00 -5.52358051e+00  7.25767237e+00 -1.25711430e+00
 -8.60680231e-01  7.44938691e+00 -4.22167642e+00 -4.50395142e+00  3.51402700e+00
 -5.31179485e+00 -6.84067813e+00 -8.76210349e-01  3.49403684e+00  1.27627650e+00
 -4.13195252e+00  1.03304204e+00  9.14439563e-01  6.35020055e-01  3.35819390e+00
  2.69748738e+00 -2.79187025e+00  5.51658648e+00  2.09724249e+00  3.69811924e-02
  4.13254351e+00 -4.76960172e-01 -3.23542504e+00 -2.34712930e-01 -3.33951329e+00
 -2.57842781e+00 -6.85294002e-01  5.29819268e+00  4.10173386e-01 -1.39461570e+00
  2.93968193e+00 -1.98395304e+00 -2.89000214e+00  7.06610354e+00 -4.63212364e+00
 -5.13191935e-01  5.06036119e+00 -1.92574829e+00  1.09762934e+00  6.17307607e+00
 -2.69785085e+00 -4.66690249e+00  6.28069329e+00 -2.84865208e+00 -2.58900538e+00
  8.92459102e+00  6.13085307e-02 -3.09143418e+00  7.35312557e+00 -3.73367133e+00
  4.90821557e+00  3.84485930e+00 -4.27890728e+00  5.65436751e+00  6.54557478e-01
 -1.58601229e+00  8.11920709e+00  2.49940551e+00 -1.30358522e-01  8.05429697e+00
  3.97624682e+00 -2.99928080e+00  9.52236150e+00  3.07167126e+00 -6.86035640e-01
  8.80494586e+00  7.61121194e-01
Integer atomic weights                     I   N=          34
          12          12          12          14          12          12
          12          12          12           1           1           1
           1           1          12           1           1          12
           1          15          12           1          12           1
           1           1           1           1           1           1
          12           1           1           1
Real atomic weights                        R   N=          34
  1.20000000e+01  1.20000000e+01  1.20000000e+01  1.40030740e+01  1.20000000e+01
  1.20000000e+01  1.20000000e+01  1.20000000e+01  1.20000000e+01  1.00782503e+00
  1.00782503e+00  1.00782503e+00  1.00782503e+00  1.00782503e+00  1.20000000e+01
  1.00782503e+00  1.00782503e+00  1.20000000e+01  1.00782503e+00  1.59949146e+01
  1.20000000e+01  1.00782503e+00  1.20000000e+01  1.00782503e+00  1.00782503e+00
  1.00782503e+00  1.00782503e+00  1.00782503e+00  1.00782503e+00  1.00782503e+00
  1.20000000e+01  1.00782503e+00  1.00782503e+00  1.00782503e+00
Number of primitive shells                 I              331
Number of contracted shells                I              158
Pure/Cartesian d shells                    I                1
Pure/Cartesian f shells                    I                1
Highest angular momentum                   I                2
Largest degree of contraction              I                6
Shell types                                I   N=         158
           0           0           1           0           1           2
           0           1           0           0           1           0
           1           2           0           1           0           0
           1           0           1           2           0           1
           0           0           1           0           1           2
           0           1           0           0           1           0
           1           2           0           1           0           0
           1           0           1           2           0           1
           0           0           1           0           1           2
           0           1           0           0           1           0
           1           2           0           1           0           0
           1           0           1           2           0           1
           0           0           0           0           0           0
           0           0           0           0           0           0
           1           0           1           2           0           1
           0           0           0           0           0           0
           1           0           1           2           0           1
           0           0           0           0           1           0
           1           2           0           1           0           0
           1           0           1           2           0           1
           0           0           0           0           1           0
           1           2           0           1           0           0
           0           0           0           0           0           0
           0           0           0           0           0           0
           0           0           1           0           1           2
           0           1           0           0           0           0
           0           0
Number of primitives per shell             I   N=         158
           6           3           3           1           1           1
           1           1           6           3           3           1
           1           1           1           1           6           3
           3           1           1           1           1           1
           6           3           3           1           1           1
           1           1           6           3           3           1
           1           1           1           1           6           3
           3           1           1           1           1           1
           6           3           3           1           1           1
           1           1           6           3           3           1
           1           1           1           1           6           3
           3           1           1           1           1           1
           3           1           3           1           3           1
           3           1           3           1           6           3
           3           1           1           1           1           1
           3           1           3           1           6           3
           3           1           1           1           1           1
           3           1           6           3           3           1
           1           1           1           1           6           3
           3           1           1           1           1           1
           3           1           6           3           3           1
           1           1           1           1           3           1
           3           1           3           1           3           1
           3           1           3           1           3           1
           6           3           3           1           1           1
           1           1           3           1           3           1
           3           1
Shell to atom map                          I   N=         158
           1           1           1           1           1           1
           1           1           2           2           2           2
           2           2           2           2           3           3
           3           3           3           3           3           3
           4           4           4           4           4           4
           4           4           5           5           5           5
           5           5           5           5           6           6
           6           6           6           6           6           6
           7           7           7           7           7           7
           7           7           8           8           8           8
           8           8           8           8           9           9
           9           9           9           9           9           9
          10          10          11          11          12          12
          13          13          14          14          15          15
          15          15          15          15          15          15
          16          16          17          17          18          18
          18          18          18          18          18          18
          19          19          20          20          20          20
          20          20          20          20          21          21
          21          21          21          21          21          21
          22          22          23          23          23          23
          23          23          23          23          24          24
          25          25          26          26          27          27
          28          28          29          29          30          30
          31          31          31          31          31          31
          31          31          32          32          33          33
          34          34
Primitive exponents                        R   N=         331
  3.04752490e+03  4.57369510e+02  1.03948690e+02  2.92101550e+01  9.28666300e+00
  3.16392700e+00  7.86827240e+00  1.88128850e+00  5.44249300e-01  7.86827240e+00
  1.88128850e+00  5.44249300e-01  1.68714400e-01  1.68714400e-01  8.00000000e-01
  4.38000000e-02  4.38000000e-02  3.04752490e+03  4.57369510e+02  1.03948690e+02
  2.92101550e+01  9.28666300e+00  3.16392700e+00  7.86827240e+00  1.88128850e+00
  5.44249300e-01  7.86827240e+00  1.88128850e+00  5.44249300e-01  1.68714400e-01
  1.68714400e-01  8.00000000e-01  4.38000000e-02  4.38000000e-02  3.04752490e+03
  4.57369510e+02  1.03948690e+02  2.92101550e+01  9.28666300e+00  3.16392700e+00
  7.86827240e+00  1.88128850e+00  5.44249300e-01  7.86827240e+00  1.88128850e+00
  5.44249300e-01  1.68714400e-01  1.68714400e-01  8.00000000e-01  4.38000000e-02
  4.38000000e-02  4.17351100e+03  6.27457900e+02  1.42902100e+02  4.02343300e+01
  1.28202100e+01  4.39043700e+00  1.16263580e+01  2.71628000e+00  7.72218000e-01
  1.16263580e+01  2.71628000e+00  7.72218000e-01  2.12031300e-01  2.12031300e-01
  8.00000000e-01  6.39000000e-02  6.39000000e-02  3.04752490e+03  4.57369510e+02
  1.03948690e+02  2.92101550e+01  9.28666300e+00  3.16392700e+00  7.86827240e+00
  1.88128850e+00  5.44249300e-01  7.86827240e+00  1.88128850e+00  5.44249300e-01
  1.68714400e-01  1.68714400e-01  8.00000000e-01  4.38000000e-02  4.38000000e-02
  3.04752490e+03  4.57369510e+02  1.03948690e+02  2.92101550e+01  9.28666300e+00
  3.16392700e+00  7.86827240e+00  1.88128850e+00  5.44249300e-01  7.86827240e+00
  1.88128850e+00  5.44249300e-01  1.68714400e-01  1.68714400e-01  8.00000000e-01
  4.38000000e-02  4.38000000e-02  3.04752490e+03  4.57369510e+02  1.03948690e+02
  2.92101550e+01  9.28666300e+00  3.16392700e+00  7.86827240e+00  1.88128850e+00
  5.44249300e-01  7.86827240e+00  1.88128850e+00  5.44249300e-01  1.68714400e-01
  1.68714400e-01  8.00000000e-01  4.38000000e-02  4.38000000e-02  3.04752490e+03
  4.57369510e+02  1.03948690e+02  2.92101550e+01  9.28666300e+00  3.16392700e+00
  7.86827240e+00  1.88128850e+00  5.44249300e-01  7.86827240e+00  1.88128850e+00
  5.44249300e-01  1.68714400e-01  1.68714400e-01  8.00000000e-01  4.38000000e-02
  4.38000000e-02  3.04752490e+03  4.57369510e+02  1.03948690e+02  2.92101550e+01
  9.28666300e+00  3.16392700e+00  7.86827240e+00  1.88128850e+00  5.44249300e-01
  7.86827240e+00  1.88128850e+00  5.44249300e-01  1.68714400e-01  1.68714400e-01
  8.00000000e-01  4.38000000e-02  4.38000000e-02  1.87311370e+01  2.82539370e+00
  6.40121700e-01  1.61277800e-01  1.87311370e+01  2.82539370e+00  6.40121700e-01
  1.61277800e-01  1.87311370e+01  2.82539370e+00  6.40121700e-01  1.61277800e-01
  1.87311370e+01  2.82539370e+00  6.40121700e-01  1.61277800e-01  1.87311370e+01
  2.82539370e+00  6.40121700e-01  1.61277800e-01  3.04752490e+03  4.57369510e+02
  1.03948690e+02  2.92101550e+01  9.28666300e+00  3.16392700e+00  7.86827240e+00
  1.88128850e+00  5.44249300e-01  7.86827240e+00  1.88128850e+00  5.44249300e-01
  1.68714400e-01  1.68714400e-01  8.00000000e-01  4.38000000e-02  4.38000000e-02
  1.87311370e+01  2.82539370e+00  6.40121700e-01  1.61277800e-01  1.87311370e+01
  2.82539370e+00  6.40121700e-01  1.61277800e-01  3.04752490e+03  4.57369510e+02
  1.03948690e+02  2.92101550e+01  9.28666300e+00  3.16392700e+00  7.86827240e+00
  1.88128850e+00  5.44249300e-01  7.86827240e+00  1.88128850e+00  5.44249300e-01
  1.68714400e-01  1.68714400e-01  8.00000000e-01  4.38000000e-02  4.38000000e-02
  1.87311370e+01  2.82539370e+00  6.40121700e-01  1.61277800e-01  5.48467170e+03
  8.25234950e+02  1.88046960e+02  5.29645000e+01  1.68975700e+01  5.79963530e+00
  1.55396160e+01  3.59993360e+00  1.01376180e+00  1.55396160e+01  3.59993360e+00
  1.01376180e+00  2.70005800e-01  2.70005800e-01  8.00000000e-01  8.45000000e-02
  8.45000000e-02  3.04752490e+03  4.57369510e+02  1.03948690e+02  2.92101550e+01
  9.28666300e+00  3.16392700e+00  7.86827240e+00  1.88128850e+00  5.44249300e-01
  7.86827240e+00  1.88128850e+00  5.44249300e-01  1.68714400e-01  1.68714400e-01
  8.00000000e-01  4.38000000e-02  4.38000000e-02  1.87311370e+01  2.82539370e+00
  6.40121700e-01  1.61277800e-01  3.04752490e+03  4.57369510e+02  1.03948690e+02
  2.92101550e+01  9.28666300e+00  3.16392700e+00  7.86827240e+00  1.88128850e+00
  5.44249300e-01  7.86827240e+00  1.88128850e+00  5.44249300e-01  1.68714400e-01
  1.68714400e-01  8.00000000e-01  4.38000000e-02  4.38000000e-02  1.87311370e+01
  2.82539370e+00  6.40121700e-01  1.61277800e-01  1.87311370e+01  2.82539370e+00
  6.40121700e-01  1.61277800e-01  1.87311370e+01  2.82539370e+00  6.40121700e-01
  1.61277800e-01  1.87311370e+01  2.82539370e+00  6.40121700e-01  1.61277800e-01
  1.87311370e+01  2.82539370e+00  6.40121700e-01  1.61277800e-01  1.87311370e+01
  2.82539370e+00  6.40121700e-01  1.61277800e-01  1.87311370e+01  2.82539370e+00
  6.40121700e-01  1.61277800e-01  3.04752490e+03  4.57369510e+02  1.03948690e+02
  2.92101550e+01  9.28666300e+00  3.16392700e+00  7.86827240e+00  1.88128850e+00
  5.44249300e-01  7.86827240e+00  1.88128850e+00  5.44249300e-01  1.68714400e-01
  1.68714400e-01  8.00000000e-01  4.38000000e-02  4.38000000e-02  1.87311370e+01
  2.82539370e+00  6.40121700e-01  1.61277800e-01  1.87311370e+01  2.82539370e+00
  6.40121700e-01  1.61277800e-01  1.87311370e+01  2.82539370e+00  6.40121700e-01
  1.61277800e-01
Contraction coefficients                   R   N=         331
  1.83470016e-03  1.40373012e-02  6.88426061e-02  2.32184421e-01  4.67941342e-01
  3.62312032e-01 -1.19332409e-01 -1.60854212e-01  1.14345648e+00  6.89990956e-02
  3.16423980e-01  7.44308252e-01  1.00000000e+00  1.00000000e+00  1.00000000e+00
  1.00000000e+00  1.00000000e+00  1.83470016e-03  1.40373012e-02  6.88426061e-02
  2.32184421e-01  4.67941342e-01  3.62312032e-01 -1.19332409e-01 -1.60854212e-01
  1.14345648e+00  6.89990956e-02  3.16423980e-01  7.44308252e-01  1.00000000e+00
  1.00000000e+00  1.00000000e+00  1.00000000e+00  1.00000000e+00  1.83470016e-03
  1.40373012e-02  6.88426061e-02  2.32184421e-01  4.67941342e-01  3.62312032e-01
 -1.19332409e-01 -1.60854212e-01  1.14345648e+00  6.89990956e-02  3.16423980e-01
  7.44308252e-01  1.00000000e+00  1.00000000e+00  1.00000000e+00  1.00000000e+00
  1.00000000e+00  1.83479944e-03  1.39949958e-02  6.85869792e-02  2.32240930e-01
  4.69069858e-01  3.60454891e-01 -1.14961023e-01 -1.69118034e-01  1.14585223e+00
  6.75800232e-02  3.23907111e-01  7.40895255e-01  1.00000000e+00  1.00000000e+00
  1.00000000e+00  1.00000000e+00  1.00000000e+00  1.83470016e-03  1.40373012e-02
  6.88426061e-02  2.32184421e-01  4.67941342e-01  3.62312032e-01 -1.19332409e-01
 -1.60854212e-01  1.14345648e+00  6.89990956e-02  3.16423980e-01  7.44308252e-01
  1.00000000e+00  1.00000000e+00  1.00000000e+00  1.00000000e+00  1.00000000e+00
  1.83470016e-03  1.40373012e-02  6.88426061e-02  2.32184421e-01  4.67941342e-01
  3.62312032e-01 -1.19332409e-01 -1.60854212e-01  1.14345648e+00  6.89990956e-02
  3.16423980e-01  7.44308252e-01  1.00000000e+00  1.00000000e+00  1.00000000e+00
  1.00000000e+00  1.00000000e+00  1.83470016e-03  1.40373012e-02  6.88426061e-02
  2.32184421e-01  4.67941342e-01  3.62312032e-01 -1.19332409e-01 -1.60854212e-01
  1.14345648e+00  6.89990956e-02  3.16423980e-01  7.44308252e-01  1.00000000e+00
  1.00000000e+00  1.00000000e+00  1.00000000e+00  1.00000000e+00  1.83470016e-03
  1.40373012e-02  6.88426061e-02  2.32184421e-01  4.67941342e-01  3.62312032e-01
 -1.19332409e-01 -1.60854212e-01  1.14345648e+00  6.89990956e-02  3.16423980e-01
  7.44308252e-01  1.00000000e+00  1.00000000e+00  1.00000000e+00  1.00000000e+00
  1.00000000e+00  1.83470016e-03  1.40373012e-02  6.88426061e-02  2.32184421e-01
  4.67941342e-01  3.62312032e-01 -1.19332409e-01 -1.60854212e-01  1.14345648e+00
  6.89990956e-02  3.16423980e-01  7.44308252e-01  1.00000000e+00  1.00000000e+00
  1.00000000e+00  1.00000000e+00  1.00000000e+00  3.34945995e-02  2.34726947e-01
  8.13757318e-01  1.00000000e+00  3.34945995e-02  2.34726947e-01  8.13757318e-01
  1.00000000e+00  3.34945995e-02  2.34726947e-01  8.13757318e-01  1.00000000e+00
  3.34945995e-02  2.34726947e-01  8.13757318e-01  1.00000000e+00  3.34945995e-02
  2.34726947e-01  8.13757318e-01  1.00000000e+00  1.83470016e-03  1.40373012e-02
  6.88426061e-02  2.32184421e-01  4.67941342e-01  3.62312032e-01 -1.19332409e-01
 -1.60854212e-01  1.14345648e+00  6.89990956e-02  3.16423980e-01  7.44308252e-01
  1.00000000e+00  1.00000000e+00  1.00000000e+00  1.00000000e+00  1.00000000e+00
  3.34945995e-02  2.34726947e-01  8.13757318e-01  1.00000000e+00  3.34945995e-02
  2.34726947e-01  8.13757318e-01  1.00000000e+00  1.83470016e-03  1.40373012e-02
  6.88426061e-02  2.32184421e-01  4.67941342e-01  3.62312032e-01 -1.19332409e-01
 -1.60854212e-01  1.14345648e+00  6.89990956e-02  3.16423980e-01  7.44308252e-01
  1.00000000e+00  1.00000000e+00  1.00000000e+00  1.00000000e+00  1.00000000e+00
  3.34945995e-02  2.34726947e-01  8.13757318e-01  1.00000000e+00  1.83109981e-03
  1.39500985e-02  6.84450927e-02  2.32714275e-01  4.70192950e-01  3.58520862e-01
 -1.10777504e-01 -1.48026305e-01  1.13076704e+00  7.08742995e-02  3.39752798e-01
  7.27158595e-01  1.00000000e+00  1.00000000e+00  1.00000000e+00  1.00000000e+00
  1.00000000e+00  1.83470016e-03  1.40373012e-02  6.88426061e-02  2.32184421e-01
  4.67941342e-01  3.62312032e-01 -1.19332409e-01 -1.60854212e-01  1.14345648e+00
  6.89990956e-02  3.16423980e-01  7.44308252e-01  1.00000000e+00  1.00000000e+00
  1.00000000e+00  1.00000000e+00  1.00000000e+00  3.34945995e-02  2.34726947e-01
  8.13757318e-01  1.00000000e+00  1.83470016e-03  1.40373012e-02  6.88426061e-02
  2.32184421e-01  4.67941342e-01  3.62312032e-01 -1.19332409e-01 -1.60854212e-01
  1.14345648e+00  6.89990956e-02  3.16423980e-01  7.44308252e-01  1.00000000e+00
  1.00000000e+00  1.00000000e+00  1.00000000e+00  1.00000000e+00  3.34945995e-02
  2.34726947e-01  8.13757318e-01  1.00000000e+00  3.34945995e-02  2.34726947e-01
  8.13757318e-01  1.00000000e+00  3.34945995e-02  2.34726947e-01  8.13757318e-01
  1.00000000e+00  3.34945995e-02  2.34726947e-01  8.13757318e-01  1.00000000e+00
  3.34945995e-02  2.34726947e-01  8.13757318e-01  1.00000000e+00  3.34945995e-02
  2.34726947e-01  8.13757318e-01  1.00000000e+00  3.34945995e-02  2.34726947e-01
  8.13757318e-01  1.00000000e+00  1.83470016e-03  1.40373012e-02  6.88426061e-02
  2.32184421e-01  4.67941342e-01  3.62312032e-01 -1.19332409e-01 -1.60854212e-01
  1.14345648e+00  6.89990956e-02  3.16423980e-01  7.44308252e-01  1.00000000e+00
  1.00000000e+00  1.00000000e+00  1.00000000e+00  1.00000000e+00  3.34945995e-02
  2.34726947e-01  8.13757318e-01  1.00000000e+00  3.34945995e-02  2.34726947e-01
  8.13757318e-01  1.00000000e+00  3.34945995e-02  2.34726947e-01  8.13757318e-01
  1.00000000e+00
Coordinates of each shell                  R   N=         474
  9.98403918e-01 -1.33113394e+00 -2.43004855e+00  9.98403918e-01 -1.33113394e+00
 -2.43004855e+00  9.98403918e-01 -1.33113394e+00 -2.43004855e+00  9.98403918e-01
 -1.33113394e+00 -2.43004855e+00  9.98403918e-01 -1.33113394e+00 -2.43004855e+00
  9.98403918e-01 -1.33113394e+00 -2.43004855e+00  9.98403918e-01 -1.33113394e+00
 -2.43004855e+00  9.98403918e-01 -1.33113394e+00 -2.43004855e+00 -1.54522224e+00
 -2.54034286e-01 -1.76114287e+00 -1.54522224e+00 -2.54034286e-01 -1.76114287e+00
 -1.54522224e+00 -2.54034286e-01 -1.76114287e+00 -1.54522224e+00 -2.54034286e-01
 -1.76114287e+00 -1.54522224e+00 -2.54034286e-01 -1.76114287e+00 -1.54522224e+00
 -2.54034286e-01 -1.76114287e+00 -1.54522224e+00 -2.54034286e-01 -1.76114287e+00
 -1.54522224e+00 -2.54034286e-01 -1.76114287e+00 -2.07335527e+00  8.15585730e-01
  8.91006852e-01 -2.07335527e+00  8.15585730e-01  8.91006852e-01 -2.07335527e+00
  8.15585730e-01  8.91006852e-01 -2.07335527e+00  8.15585730e-01  8.91006852e-01
 -2.07335527e+00  8.15585730e-01  8.91006852e-01 -2.07335527e+00  8.15585730e-01
  8.91006852e-01 -2.07335527e+00  8.15585730e-01  8.91006852e-01 -2.07335527e+00
  8.15585730e-01  8.91006852e-01 -1.48769881e+00 -1.11661751e+00  2.79198376e+00
 -1.48769881e+00 -1.11661751e+00  2.79198376e+00 -1.48769881e+00 -1.11661751e+00
  2.79198376e+00 -1.48769881e+00 -1.11661751e+00  2.79198376e+00 -1.48769881e+00
 -1.11661751e+00  2.79198376e+00 -1.48769881e+00 -1.11661751e+00  2.79198376e+00
 -1.48769881e+00 -1.11661751e+00  2.79198376e+00 -1.48769881e+00 -1.11661751e+00
  2.79198376e+00  3.22892993e+00 -7.33153554e-01 -1.12175880e+00  3.22892993e+00
 -7.33153554e-01 -1.12175880e+00  3.22892993e+00 -7.33153554e-01 -1.12175880e+00
  3.22892993e+00 -7.33153554e-01 -1.12175880e+00  3.22892993e+00 -7.33153554e-01
 -1.12175880e+00  3.22892993e+00 -7.33153554e-01 -1.12175880e+00  3.22892993e+00
 -7.33153554e-01 -1.12175880e+00  3.22892993e+00 -7.33153554e-01 -1.12175880e+00
  5.54270356e+00 -1.75715413e+00 -1.87464261e+00  5.54270356e+00 -1.75715413e+00
 -1.87464261e+00  5.54270356e+00 -1.75715413e+00 -1.87464261e+00  5.54270356e+00
 -1.75715413e+00 -1.87464261e+00  5.54270356e+00 -1.75715413e+00 -1.87464261e+00
  5.54270356e+00 -1.75715413e+00 -1.87464261e+00  5.54270356e+00 -1.75715413e+00
 -1.87464261e+00  5.54270356e+00 -1.75715413e+00 -1.87464261e+00  5.65079628e+00
 -3.41389468e+00 -3.92726265e+00  5.65079628e+00 -3.41389468e+00 -3.92726265e+00
  5.65079628e+00 -3.41389468e+00 -3.92726265e+00  5.65079628e+00 -3.41389468e+00
 -3.92726265e+00  5.65079628e+00 -3.41389468e+00 -3.92726265e+00  5.65079628e+00
 -3.41389468e+00 -3.92726265e+00  5.65079628e+00 -3.41389468e+00 -3.92726265e+00
  5.65079628e+00 -3.41389468e+00 -3.92726265e+00  3.43866212e+00 -4.02391027e+00
 -5.24229722e+00  3.43866212e+00 -4.02391027e+00 -5.24229722e+00  3.43866212e+00
 -4.02391027e+00 -5.24229722e+00  3.43866212e+00 -4.02391027e+00 -5.24229722e+00
  3.43866212e+00 -4.02391027e+00 -5.24229722e+00  3.43866212e+00 -4.02391027e+00
 -5.24229722e+00  3.43866212e+00 -4.02391027e+00 -5.24229722e+00  3.43866212e+00
 -4.02391027e+00 -5.24229722e+00  1.13630182e+00 -2.97803021e+00 -4.50900749e+00
  1.13630182e+00 -2.97803021e+00 -4.50900749e+00  1.13630182e+00 -2.97803021e+00
 -4.50900749e+00  1.13630182e+00 -2.97803021e+00 -4.50900749e+00  1.13630182e+00
 -2.97803021e+00 -4.50900749e+00  1.13630182e+00 -2.97803021e+00 -4.50900749e+00
  1.13630182e+00 -2.97803021e+00 -4.50900749e+00  1.13630182e+00 -2.97803021e+00
 -4.50900749e+00  3.19330552e+00  5.79064307e-01  4.54903257e-01  3.19330552e+00
  5.79064307e-01  4.54903257e-01 -5.91825608e-01 -3.41618448e+00 -5.52358051e+00
 -5.91825608e-01 -3.41618448e+00 -5.52358051e+00  7.25767237e+00 -1.25711430e+00
 -8.60680231e-01  7.25767237e+00 -1.25711430e+00 -8.60680231e-01  7.44938691e+00
 -4.22167642e+00 -4.50395142e+00  7.44938691e+00 -4.22167642e+00 -4.50395142e+00
  3.51402700e+00 -5.31179485e+00 -6.84067813e+00  3.51402700e+00 -5.31179485e+00
 -6.84067813e+00 -8.76210349e-01  3.49403684e+00  1.27627650e+00 -8.76210349e-01
  3.49403684e+00  1.27627650e+00 -8.76210349e-01  3.49403684e+00  1.27627650e+00
 -8.76210349e-01  3.49403684e+00  1.27627650e+00 -8.76210349e-01  3.49403684e+00
  1.27627650e+00 -8.76210349e-01  3.49403684e+00  1.27627650e+00 -8.76210349e-01
  3.49403684e+00  1.27627650e+00 -8.76210349e-01  3.49403684e+00  1.27627650e+00
 -4.13195252e+00  1.03304204e+00  9.14439563e-01 -4.13195252e+00  1.03304204e+00
  9.14439563e-01  6.35020055e-01  3.35819390e+00  2.69748738e+00  6.35020055e-01
  3.35819390e+00  2.69748738e+00 -2.79187025e+00  5.51658648e+00  2.09724249e+00
 -2.79187025e+00  5.51658648e+00  2.09724249e+00 -2.79187025e+00  5.51658648e+00
  2.09724249e+00 -2.79187025e+00  5.51658648e+00  2.09724249e+00 -2.79187025e+00
  5.51658648e+00  2.09724249e+00 -2.79187025e+00  5.51658648e+00  2.09724249e+00
 -2.79187025e+00  5.51658648e+00  2.09724249e+00 -2.79187025e+00  5.51658648e+00
  2.09724249e+00  3.69811924e-02  4.13254351e+00 -4.76960172e-01  3.69811924e-02
  4.13254351e+00 -4.76960172e-01 -3.23542504e+00 -2.34712930e-01 -3.33951329e+00
 -3.23542504e+00 -2.34712930e-01 -3.33951329e+00 -3.23542504e+00 -2.34712930e-01
 -3.33951329e+00 -3.23542504e+00 -2.34712930e-01 -3.33951329e+00 -3.23542504e+00
 -2.34712930e-01 -3.33951329e+00 -3.23542504e+00 -2.34712930e-01 -3.33951329e+00
 -3.23542504e+00 -2.34712930e-01 -3.33951329e+00 -3.23542504e+00 -2.34712930e-01
 -3.33951329e+00 -2.57842781e+00 -6.85294002e-01  5.29819268e+00 -2.57842781e+00
 -6.85294002e-01  5.29819268e+00 -2.57842781e+00 -6.85294002e-01  5.29819268e+00
 -2.57842781e+00 -6.85294002e-01  5.29819268e+00 -2.57842781e+00 -6.85294002e-01
  5.29819268e+00 -2.57842781e+00 -6.85294002e-01  5.29819268e+00 -2.57842781e+00
 -6.85294002e-01  5.29819268e+00 -2.57842781e+00 -6.85294002e-01  5.29819268e+00
  4.10173386e-01 -1.39461570e+00  2.93968193e+00  4.10173386e-01 -1.39461570e+00
  2.93968193e+00 -1.98395304e+00 -2.89000214e+00  7.06610354e+00 -1.98395304e+00
 -2.89000214e+00  7.06610354e+00 -1.98395304e+00 -2.89000214e+00  7.06610354e+00
 -1.98395304e+00 -2.89000214e+00  7.06610354e+00 -1.98395304e+00 -2.89000214e+00
  7.06610354e+00 -1.98395304e+00 -2.89000214e+00  7.06610354e+00 -1.98395304e+00
 -2.89000214e+00  7.06610354e+00 -1.98395304e+00 -2.89000214e+00  7.06610354e+00
 -4.63212364e+00 -5.13191935e-01  5.06036119e+00 -4.63212364e+00 -5.13191935e-01
  5.06036119e+00 -1.92574829e+00  1.09762934e+00  6.17307607e+00 -1.92574829e+00
  1.09762934e+00  6.17307607e+00 -2.69785085e+00 -4.66690249e+00  6.28069329e+00
 -2.69785085e+00 -4.66690249e+00  6.28069329e+00 -2.84865208e+00 -2.58900538e+00
  8.92459102e+00 -2.84865208e+00 -2.58900538e+00  8.92459102e+00  6.13085307e-02
 -3.09143418e+00  7.35312557e+00  6.13085307e-02 -3.09143418e+00  7.35312557e+00
 -3.73367133e+00  4.90821557e+00  3.84485930e+00 -3.73367133e+00  4.90821557e+00
  3.84485930e+00 -4.27890728e+00  5.65436751e+00  6.54557478e-01 -4.27890728e+00
  5.65436751e+00  6.54557478e-01 -1.58601229e+00  8.11920709e+00  2.49940551e+00
 -1.58601229e+00  8.11920709e+00  2.49940551e+00 -1.58601229e+00  8.11920709e+00
  2.49940551e+00 -1.58601229e+00  8.11920709e+00  2.49940551e+00 -1.58601229e+00
  8.11920709e+00  2.49940551e+00 -1.58601229e+00  8.11920709e+00  2.49940551e+00
 -1.58601229e+00  8.11920709e+00  2.49940551e+00 -1.58601229e+00  8.11920709e+00
  2.49940551e+00 -1.30358522e-01  8.05429697e+00  3.97624682e+00 -1.30358522e-01
  8.05429697e+00  3.97624682e+00 -2.99928080e+00  9.52236150e+00  3.07167126e+00
 -2.99928080e+00  9.52236150e+00  3.07167126e+00 -6.86035640e-01  8.80494586e+00
  7.61121194e-01 -6.86035640e-01  8.80494586e+00  7.61121194e-01
Total Energy                               R     -6.368160645036314e+02
Alpha Orbital Energies                     R   N=         323
 -1.91473619e+01 -1.43324857e+01 -1.02815009e+01 -1.02260131e+01 -1.02179821e+01
 -1.02142798e+01 -1.02131867e+01 -1.02122206e+01 -1.02103686e+01 -1.02077076e+01
 -1.02060137e+01 -1.01958924e+01 -1.01920856e+01 -1.01833710e+01 -1.01832101e+01
 -1.04507964e+00 -9.16383896e-01 -8.71324497e-01 -8.02470709e-01 -7.76481786e-01
 -7.62833157e-01 -7.55971263e-01 -7.12636884e-01 -6.66061763e-01 -6.32039036e-01