Generated by Psi4
     FORCE                           RHF                       TESTBAS
Number of atoms                            I               31
Charge                                     I                0
Multiplicity                               I                1
Number of electrons                        I              104
Number of alpha electrons                  I               52
Number of beta electrons                   I               52
Number of basis functions                  I              300
Number of independent functions            I              300
Atomic numbers                             I   N=          31
           6           6           6           7           6           6
           6           6           6           1           1           1
           1           1           6           1           1           6
           1           8           6           1           6           1
           1           1           1           1           1           1
           1
Nuclear charges                            R   N=          31
  6.00000000e+00  6.00000000e+00  6.00000000e+00  7.00000000e+00  6.00000000e+00
  6.00000000e+00  6.00000000e+00  6.00000000e+00  6.00000000e+00  1.00000000e+00
  1.00000000e+00  1.00000000e+00  1.00000000e+00  1.00000000e+00  6.00000000e+00
  1.00000000e+00  1.00000000e+00  6.00000000e+00  1.00000000e+00  8.00000000e+00
  6.00000000e+00  1.00000000e+00  6.00000000e+00  1.00000000e+00  1.00000000e+00
  1.00000000e+00  1.00000000e+00  1.00000000e+00  1.00000000e+00  1.00000000e+00
  1.00000000e+00
Current cartesian coordinates              R   N=          93
  9.27413174e-01 -7.45757669e-01 -2.22705427e+00 -1.62538960e+00  3.45475544e-01
 -1.61506482e+00 -2.19865567e+00  1.45145275e+00  1.01432881e+00 -1.65895909e+00
 -4.63922234e-01  2.94510621e+00  3.13825656e+00 -1.33934234e-01 -8.92447849e-01
  5.46169010e+00 -1.17255688e+00 -1.59491427e+00  5.59863881e+00 -2.85818503e+00
 -3.62206632e+00  3.40576883e+00 -3.48266798e+00 -4.96271211e+00  1.09445823e+00
 -2.42235889e+00 -4.28021626e+00  3.08135089e+00  1.19910991e+00  6.65986764e-01
 -6.18317714e-01 -2.87162953e+00 -5.31572427e+00  7.16142928e+00 -6.61485392e-01
 -5.60970965e-01  7.40444764e+00 -3.67725171e+00 -4.15897727e+00  3.50295301e+00
 -4.79326502e+00 -6.54144232e+00 -9.95787748e-01  4.12811525e+00  1.39381726e+00
 -4.25625055e+00  1.67944127e+00  9.94051265e-01  5.42571279e-01  3.98191455e+00
  2.78201888e+00 -2.90234521e+00  6.13510503e+00  2.26171782e+00 -1.19493364e-01
  4.77217727e+00 -3.74572303e-01 -3.28850476e+00  3.45800639e-01 -3.22145290e+00
 -2.77897130e+00 -1.40719953e-03  5.43253022e+00  2.33550318e-01 -7.62877602e-01
  3.11886411e+00 -2.25679643e+00 -2.21200229e+00  7.21629517e+00 -4.82471020e+00
  2.11264491e-01  5.16195042e+00 -2.10381770e+00  1.76979708e+00  6.31308355e+00
 -2.99709691e+00 -3.97610803e+00  6.42679233e+00 -3.14096755e+00 -1.88548015e+00
  9.06133624e+00 -2.20553157e-01 -2.45554812e+00  7.53259069e+00 -3.79895788e+00
  5.60923853e+00  4.05401675e+00 -4.40384433e+00  6.38058779e+00  8.54082463e-01
 -1.98060787e+00  7.97230774e+00  2.52804167e+00
Integer atomic weights                     I   N=          31
          12          12          12          14          12          12
          12          12          12           1           1           1
           1           1          12           1           1          12
           1          15          12           1          12           1
           1           1           1           1           1           1
           1
Real atomic weights                        R   N=          31
  1.20000000e+01  1.20000000e+01  1.20000000e+01  1.40030740e+01  1.20000000e+01
  1.20000000e+01  1.20000000e+01  1.20000000e+01  1.20000000e+01  1.00782503e+00
  1.00782503e+00  1.00782503e+00  1.00782503e+00  1.00782503e+00  1.20000000e+01
  1.00782503e+00  1.00782503e+00  1.20000000e+01  1.00782503e+00  1.59949146e+01
  1.20000000e+01  1.00782503e+00  1.20000000e+01  1.00782503e+00  1.00782503e+00
  1.00782503e+00  1.00782503e+00  1.00782503e+00  1.00782503e+00  1.00782503e+00
  1.00782503e+00
Number of primitive shells                 I              306
Number of contracted shells                I              146
Pure/Cartesian d shells                    I                1
Pure/Cartesian f shells                    I                1
Highest angular momentum                   I                2
Largest degree of contraction              I                6
Shell types                                I   N=         146
           0           0           1           0           1           2
           0           1           0           0           1           0
           1           2           0           1           0           0
           1           0           1           2           0           1
           0           0           1           0           1           2
           0           1           0           0           1           0
           1           2           0           1           0           0
           1           0           1           2           0           1
           0           0           1           0           1           2
           0           1           0           0           1           0
           1           2           0           1           0           0
           1           0           1           2           0           1
           0           0           0           0           0           0
           0           0           0           0           0           0
           1           0           1           2           0           1
           0           0           0           0           0           0
           1           0           1           2           0           1
           0           0           0           0           1           0
           1           2           0           1           0           0
           1           0           1           2           0           1
           0           0           0           0           1           0
           1           2           0           1           0           0
           0           0           0           0           0           0
           0           0           0           0           0           0
           0           0
Number of primitives per shell             I   N=         146
           6           3           3           1           1           1
           1           1           6           3           3           1
           1           1           1           1           6           3
           3           1           1           1           1           1
           6           3           3           1           1           1
           1           1           6           3           3           1
           1           1           1           1           6           3
           3           1           1           1           1           1
           6           3           3           1           1           1
           1           1           6           3           3           1
           1           1           1           1           6           3
           3           1           1           1           1           1
           3           1           3           1           3           1
           3           1           3           1           6           3
           3           1           1           1           1           1
           3           1           3           1           6           3
           3           1           1           1           1           1
           3           1           6           3           3           1
           1           1           1           1           6           3
           3           1           1           1           1           1
           3           1           6           3           3           1
           1           1           1           1           3           1
           3           1           3           1           3           1
           3           1           3           1           3           1
           3           1
Shell to atom map                          I   N=         146
           1           1           1           1           1           1
           1           1           2           2           2           2
           2           2           2           2           3           3
           3           3           3           3           3           3
           4           4           4           4           4           4
           4           4           5           5           5           5
           5           5           5           5           6           6
           6           6           6           6           6           6
           7           7           7           7           7           7
           7           7           8           8           8           8
           8           8           8           8           9           9
           9           9           9           9           9           9
          10          10          11          11          12          12
          13          13          14          14          15          15
          15          15          15          15          15          15
          16          16          17          17          18          18
          18          18          18          18          18          18
          19          19          20          20          20          20
          20          20          20          20          21          21
          21          21          21          21          21          21
          22          22          23          23          23          23
          23          23          23          23          24          24
          25          25          26          26          27          27
          28          28          29          29          30          30
          31          31
Primitive exponents                        R   N=         306
  3.04752490e+03  4.57369510e+02  1.03948690e+02  2.92101550e+01  9.28666300e+00
  3.16392700e+00  7.86827240e+00  1.88128850e+00  5.44249300e-01  7.86827240e+00
  1.88128850e+00  5.44249300e-01  1.68714400e-01  1.68714400e-01  8.00000000e-01
  4.38000000e-02  4.38000000e-02  3.04752490e+03  4.57369510e+02  1.03948690e+02
  2.92101550e+01  9.28666300e+00  3.16392700e+00  7.86827240e+00  1.88128850e+00
  5.44249300e-01  7.86827240e+00  1.88128850e+00  5.44249300e-01  1.68714400e-01
  1.68714400e-01  8.00000000e-01  4.38000000e-02  4.38000000e-02  3.04752490e+03
  4.57369510e+02  1.03948690e+02  2.92101550e+01  9.28666300e+00  3.16392700e+00
  7.86827240e+00  1.88128850e+00  5.44249300e-01  7.86827240e+00  1.88128850e+00
  5.44249300e-01  1.68714400e-01  1.68714400e-01  8.00000000e-01  4.38000000e-02
  4.38000000e-02  4.17351100e+03  6.27457900e+02  1.42902100e+02  4.02343300e+01
  1.28202100e+01  4.39043700e+00  1.16263580e+01  2.71628000e+00  7.72218000e-01
  1.16263580e+01  2.71628000e+00  7.72218000e-01  2.12031300e-01  2.12031300e-01
  8.00000000e-01  6.39000000e-02  6.39000000e-02  3.04752490e+03  4.57369510e+02
  1.03948690e+02  2.92101550e+01  9.28666300e+00  3.16392700e+00  7.86827240e+00
  1.88128850e+00  5.44249300e-01  7.86827240e+00  1.88128850e+00  5.44249300e-01
  1.68714400e-01  1.68714400e-01  8.00000000e-01  4.38000000e-02  4.38000000e-02
  3.04752490e+03  4.57369510e+02  1.03948690e+02  2.92101550e+01  9.28666300e+00
  3.16392700e+00  7.86827240e+00  1.88128850e+00  5.44249300e-01  7.86827240e+00
  1.88128850e+00  5.44249300e-01  1.68714400e-01  1.68714400e-01  8.00000000e-01
  4.38000000e-02  4.38000000e-02  3.04752490e+03  4.57369510e+02  1.03948690e+02
  2.92101550e+01  9.28666300e+00  3.16392700e+00  7.86827240e+00  1.88128850e+00
  5.44249300e-01  7.86827240e+00  1.88128850e+00  5.44249300e-01  1.68714400e-01
  1.68714400e-01  8.00000000e-01  4.38000000e-02  4.38000000e-02  3.04752490e+03
  4.57369510e+02  1.03948690e+02  2.92101550e+01  9.28666300e+00  3.16392700e+00
  7.86827240e+00  1.88128850e+00  5.44249300e-01  7.86827240e+00  1.88128850e+00
  5.44249300e-01  1.68714400e-01  1.68714400e-01  8.00000000e-01  4.38000000e-02
  4.38000000e-02  3.04752490e+03  4.57369510e+02  1.03948690e+02  2.92101550e+01
  9.28666300e+00  3.16392700e+00  7.86827240e+00  1.88128850e+00  5.44249300e-01
  7.86827240e+00  1.88128850e+00  5.44249300e-01  1.68714400e-01  1.68714400e-01
  8.00000000e-01  4.38000000e-02  4.38000000e-02  1.87311370e+01  2.82539370e+00
  6.40121700e-01  1.61277800e-01  1.87311370e+01  2.82539370e+00  6.40121700e-01
  1.61277800e-01  1.87311370e+01  2.82539370e+00  6.40121700e-01  1.61277800e-01
  1.87311370e+01  2.82539370e+00  6.40121700e-01  1.61277800e-01  1.87311370e+01
  2.82539370e+00  6.40121700e-01  1.61277800e-01  3.04752490e+03  4.57369510e+02
  1.03948690e+02  2.92101550e+01  9.28666300e+00  3.16392700e+00  7.86827240e+00
  1.88128850e+00  5.44249300e-01  7.86827240e+00  1.88128850e+00  5.44249300e-01
  1.68714400e-01  1.68714400e-01  8.00000000e-01  4.38000000e-02  4.38000000e-02
  1.87311370e+01  2.82539370e+00  6.40121700e-01  1.61277800e-01  1.87311370e+01
  2.82539370e+00  6.40121700e-01  1.61277800e-01  3.04752490e+03  4.57369510e+02
  1.03948690e+02  2.92101550e+01  9.28666300e+00  3.16392700e+00  7.86827240e+00
  1.88128850e+00  5.44249300e-01  7.86827240e+00  1.88128850e+00  5.44249300e-01
  1.68714400e-01  1.68714400e-01  8.00000000e-01  4.38000000e-02  4.38000000e-02
  1.87311370e+01  2.82539370e+00  6.40121700e-01  1.61277800e-01  5.48467170e+03
  8.25234950e+02  1.88046960e+02  5.29645000e+01  1.68975700e+01  5.79963530e+00
  1.55396160e+01  3.59993360e+00  1.01376180e+00  1.55396160e+01  3.59993360e+00
  1.01376180e+00  2.70005800e-01  2.70005800e-01  8.00000000e-01  8.45000000e-02
  8.45000000e-02  3.04752490e+03  4.57369510e+02  1.03948690e+02  2.92101550e+01
  9.28666300e+00  3.16392700e+00  7.86827240e+00  1.88128850e+00  5.44249300e-01
  7.86827240e+00  1.88128850e+00  5.44249300e-01  1.68714400e-01  1.68714400e-01
  8.00000000e-01  4.38000000e-02  4.38000000e-02  1.87311370e+01  2.82539370e+00
  6.40121700e-01  1.61277800e-01  3.04752490e+03  4.57369510e+02  1.03948690e+02
  2.92101550e+01  9.28666300e+00  3.16392700e+00  7.86827240e+00  1.88128850e+00
  5.44249300e-01  7.86827240e+00  1.88128850e+00  5.44249300e-01  1.68714400e-01
  1.68714400e-01  8.00000000e-01  4.38000000e-02  4.38000000e-02  1.87311370e+01
  2.82539370e+00  6.40121700e-01  1.61277800e-01  1.87311370e+01  2.82539370e+00
  6.40121700e-01  1.61277800e-01  1.87311370e+01  2.82539370e+00  6.40121700e-01
  1.61277800e-01  1.87311370e+01  2.82539370e+00  6.40121700e-01  1.61277800e-01
  1.87311370e+01  2.82539370e+00  6.40121700e-01  1.61277800e-01  1.87311370e+01
  2.82539370e+00  6.40121700e-01  1.61277800e-01  1.87311370e+01  2.82539370e+00
  6.40121700e-01  1.61277800e-01  1.87311370e+01  2.82539370e+00  6.40121700e-01
  1.61277800e-01
Contraction coefficients                   R   N=         306
  1.83470016e-03  1.40373012e-02  6.88426061e-02  2.32184421e-01  4.67941342e-01
  3.62312032e-01 -1.19332409e-01 -1.60854212e-01  1.14345648e+00  6.89990956e-02
  3.16423980e-01  7.44308252e-01  1.00000000e+00  1.00000000e+00  1.00000000e+00
  1.00000000e+00  1.00000000e+00  1.83470016e-03  1.40373012e-02  6.88426061e-02
  2.32184421e-01  4.67941342e-01  3.62312032e-01 -1.19332409e-01 -1.60854212e-01
  1.14345648e+00  6.89990956e-02  3.16423980e-01  7.44308252e-01  1.00000000e+00
  1.00000000e+00  1.00000000e+00  1.00000000e+00  1.00000000e+00  1.83470016e-03
  1.40373012e-02  6.88426061e-02  2.32184421e-01  4.67941342e-01  3.62312032e-01
 -1.19332409e-01 -1.60854212e-01  1.14345648e+00  6.89990956e-02  3.16423980e-01
  7.44308252e-01  1.00000000e+00  1.00000000e+00  1.00000000e+00  1.00000000e+00
  1.00000000e+00  1.83479944e-03  1.39949958e-02  6.85869792e-02  2.32240930e-01
  4.69069858e-01  3.60454891e-01 -1.14961023e-01 -1.69118034e-01  1.14585223e+00
  6.75800232e-02  3.23907111e-01  7.40895255e-01  1.00000000e+00  1.00000000e+00
  1.00000000e+00  1.00000000e+00  1.00000000e+00  1.83470016e-03  1.40373012e-02
  6.88426061e-02  2.32184421e-01  4.67941342e-01  3.62312032e-01 -1.19332409e-01
 -1.60854212e-01  1.14345648e+00  6.89990956e-02  3.16423980e-01  7.44308252e-01
  1.00000000e+00  1.00000000e+00  1.00000000e+00  1.00000000e+00  1.00000000e+00
  1.83470016e-03  1.40373012e-02  6.88426061e-02  2.32184421e-01  4.67941342e-01
  3.62312032e-01 -1.19332409e-01 -1.60854212e-01  1.14345648e+00  6.89990956e-02
  3.16423980e-01  7.44308252e-01  1.00000000e+00  1.00000000e+00  1.00000000e+00
  1.00000000e+00  1.00000000e+00  1.83470016e-03  1.40373012e-02  6.88426061e-02
  2.32184421e-01  4.67941342e-01  3.62312032e-01 -1.19332409e-01 -1.60854212e-01
  1.14345648e+00  6.89990956e-02  3.16423980e-01  7.44308252e-01  1.00000000e+00
  1.00000000e+00  1.00000000e+00  1.00000000e+00  1.00000000e+00  1.83470016e-03
  1.40373012e-02  6.88426061e-02  2.32184421e-01  4.67941342e-01  3.62312032e-01
 -1.19332409e-01 -1.60854212e-01  1.14345648e+00  6.89990956e-02  3.16423980e-01
  7.44308252e-01  1.00000000e+00  1.00000000e+00  1.00000000e+00  1.00000000e+00
  1.00000000e+00  1.83470016e-03  1.40373012e-02  6.88426061e-02  2.32184421e-01
  4.67941342e-01  3.62312032e-01 -1.19332409e-01 -1.60854212e-01  1.14345648e+00
  6.89990956e-02  3.16423980e-01  7.44308252e-01  1.00000000e+00  1.00000000e+00
  1.00000000e+00  1.00000000e+00  1.00000000e+00  3.34945995e-02  2.34726947e-01
  8.13757318e-01  1.00000000e+00  3.34945995e-02  2.34726947e-01  8.13757318e-01
  1.00000000e+00  3.34945995e-02  2.34726947e-01  8.13757318e-01  1.00000000e+00
  3.34945995e-02  2.34726947e-01  8.13757318e-01  1.00000000e+00  3.34945995e-02
  2.34726947e-01  8.13757318e-01  1.00000000e+00  1.83470016e-03  1.40373012e-02
  6.88426061e-02  2.32184421e-01  4.67941342e-01  3.62312032e-01 -1.19332409e-01
 -1.60854212e-01  1.14345648e+00  6.89990956e-02  3.16423980e-01  7.44308252e-01
  1.00000000e+00  1.00000000e+00  1.00000000e+00  1.00000000e+00  1.00000000e+00
  3.34945995e-02  2.34726947e-01  8.13757318e-01  1.00000000e+00  3.34945995e-02
  2.34726947e-01  8.13757318e-01  1.00000000e+00  1.83470016e-03  1.40373012e-02
  6.88426061e-02  2.32184421e-01  4.67941342e-01  3.62312032e-01 -1.19332409e-01
 -1.60854212e-01  1.14345648e+00  6.89990956e-02  3.16423980e-01  7.44308252e-01
  1.00000000e+00  1.00000000e+00  1.00000000e+00  1.00000000e+00  1.00000000e+00
  3.34945995e-02  2.34726947e-01  8.13757318e-01  1.00000000e+00  1.83109981e-03
  1.39500985e-02  6.84450927e-02  2.32714275e-01  4.70192950e-01  3.58520862e-01
 -1.10777504e-01 -1.48026305e-01  1.13076704e+00  7.08742995e-02  3.39752798e-01
  7.27158595e-01  1.00000000e+00  1.00000000e+00  1.00000000e+00  1.00000000e+00
  1.00000000e+00  1.83470016e-03  1.40373012e-02  6.88426061e-02  2.32184421e-01
  4.67941342e-01  3.62312032e-01 -1.19332409e-01 -1.60854212e-01  1.14345648e+00
  6.89990956e-02  3.16423980e-01  7.44308252e-01  1.00000000e+00  1.00000000e+00
  1.00000000e+00  1.00000000e+00  1.00000000e+00  3.34945995e-02  2.34726947e-01
  8.13757318e-01  1.00000000e+00  1.83470016e-03  1.40373012e-02  6.88426061e-02
  2.32184421e-01  4.67941342e-01  3.62312032e-01 -1.19332409e-01 -1.60854212e-01
  1.14345648e+00  6.89990956e-02  3.16423980e-01  7.44308252e-01  1.00000000e+00
  1.00000000e+00  1.00000000e+00  1.00000000e+00  1.00000000e+00  3.34945995e-02
  2.34726947e-01  8.13757318e-01  1.00000000e+00  3.34945995e-02  2.34726947e-01
  8.13757318e-01  1.00000000e+00  3.34945995e-02  2.34726947e-01  8.13757318e-01
  1.00000000e+00  3.34945995e-02  2.34726947e-01  8.13757318e-01  1.00000000e+00
  3.34945995e-02  2.34726947e-01  8.13757318e-01  1.00000000e+00  3.34945995e-02
  2.34726947e-01  8.13757318e-01  1.00000000e+00  3.34945995e-02  2.34726947e-01
  8.13757318e-01  1.00000000e+00  3.34945995e-02  2.34726947e-01  8.13757318e-01
  1.00000000e+00
Coordinates of each shell                  R   N=         438
  9.27413174e-01 -7.45757669e-01 -2.22705427e+00  9.27413174e-01 -7.45757669e-01
 -2.22705427e+00  9.27413174e-01 -7.45757669e-01 -2.22705427e+00  9.27413174e-01
 -7.45757669e-01 -2.22705427e+00  9.27413174e-01 -7.45757669e-01 -2.22705427e+00
  9.27413174e-01 -7.45757669e-01 -2.22705427e+00  9.27413174e-01 -7.45757669e-01
 -2.22705427e+00  9.27413174e-01 -7.45757669e-01 -2.22705427e+00 -1.62538960e+00
  3.45475544e-01 -1.61506482e+00 -1.62538960e+00  3.45475544e-01 -1.61506482e+00
 -1.62538960e+00  3.45475544e-01 -1.61506482e+00 -1.62538960e+00  3.45475544e-01
 -1.61506482e+00 -1.62538960e+00  3.45475544e-01 -1.61506482e+00 -1.62538960e+00
  3.45475544e-01 -1.61506482e+00 -1.62538960e+00  3.45475544e-01 -1.61506482e+00
 -1.62538960e+00  3.45475544e-01 -1.61506482e+00 -2.19865567e+00  1.45145275e+00
  1.01432881e+00 -2.19865567e+00  1.45145275e+00  1.01432881e+00 -2.19865567e+00
  1.45145275e+00  1.01432881e+00 -2.19865567e+00  1.45145275e+00  1.01432881e+00
 -2.19865567e+00  1.45145275e+00  1.01432881e+00 -2.19865567e+00  1.45145275e+00
  1.01432881e+00 -2.19865567e+00  1.45145275e+00  1.01432881e+00 -2.19865567e+00
  1.45145275e+00  1.01432881e+00 -1.65895909e+00 -4.63922234e-01  2.94510621e+00
 -1.65895909e+00 -4.63922234e-01  2.94510621e+00 -1.65895909e+00 -4.63922234e-01
  2.94510621e+00 -1.65895909e+00 -4.63922234e-01  2.94510621e+00 -1.65895909e+00
 -4.63922234e-01  2.94510621e+00 -1.65895909e+00 -4.63922234e-01  2.94510621e+00
 -1.65895909e+00 -4.63922234e-01  2.94510621e+00 -1.65895909e+00 -4.63922234e-01
  2.94510621e+00  3.13825656e+00 -1.33934234e-01 -8.92447849e-01  3.13825656e+00
 -1.33934234e-01 -8.92447849e-01  3.13825656e+00 -1.33934234e-01 -8.92447849e-01
  3.13825656e+00 -1.33934234e-01 -8.92447849e-01  3.13825656e+00 -1.33934234e-01
 -8.92447849e-01  3.13825656e+00 -1.33934234e-01 -8.92447849e-01  3.13825656e+00
 -1.33934234e-01 -8.92447849e-01  3.13825656e+00 -1.33934234e-01 -8.92447849e-01
  5.46169010e+00 -1.17255688e+00 -1.59491427e+00  5.46169010e+00 -1.17255688e+00
 -1.59491427e+00  5.46169010e+00 -1.17255688e+00 -1.59491427e+00  5.46169010e+00
 -1.17255688e+00 -1.59491427e+00  5.46169010e+00 -1.17255688e+00 -1.59491427e+00
  5.46169010e+00 -1.17255688e+00 -1.59491427e+00  5.46169010e+00 -1.17255688e+00
 -1.59491427e+00  5.46169010e+00 -1.17255688e+00 -1.59491427e+00  5.59863881e+00
 -2.85818503e+00 -3.62206632e+00  5.59863881e+00 -2.85818503e+00 -3.62206632e+00
  5.59863881e+00 -2.85818503e+00 -3.62206632e+00  5.59863881e+00 -2.85818503e+00
 -3.62206632e+00  5.59863881e+00 -2.85818503e+00 -3.62206632e+00  5.59863881e+00
 -2.85818503e+00 -3.62206632e+00  5.59863881e+00 -2.85818503e+00 -3.62206632e+00
  5.59863881e+00 -2.85818503e+00 -3.62206632e+00  3.40576883e+00 -3.48266798e+00
 -4.96271211e+00  3.40576883e+00 -3.48266798e+00 -4.96271211e+00  3.40576883e+00
 -3.48266798e+00 -4.96271211e+00  3.40576883e+00 -3.48266798e+00 -4.96271211e+00
  3.40576883e+00 -3.48266798e+00 -4.96271211e+00  3.40576883e+00 -3.48266798e+00
 -4.96271211e+00  3.40576883e+00 -3.48266798e+00 -4.96271211e+00  3.40576883e+00
 -3.48266798e+00 -4.96271211e+00  1.09445823e+00 -2.42235889e+00 -4.28021626e+00
  1.09445823e+00 -2.42235889e+00 -4.28021626e+00  1.09445823e+00 -2.42235889e+00
 -4.28021626e+00  1.09445823e+00 -2.42235889e+00 -4.28021626e+00  1.09445823e+00
 -2.42235889e+00 -4.28021626e+00  1.09445823e+00 -2.42235889e+00 -4.28021626e+00
  1.09445823e+00 -2.42235889e+00 -4.28021626e+00  1.09445823e+00 -2.42235889e+00
 -4.28021626e+00  3.08135089e+00  1.19910991e+00  6.65986764e-01  3.08135089e+00
  1.19910991e+00  6.65986764e-01 -6.18317714e-01 -2.87162953e+00 -5.31572427e+00
 -6.18317714e-01 -2.87162953e+00 -5.31572427e+00  7.16142928e+00 -6.61485392e-01
 -5.60970965e-01  7.16142928e+00 -6.61485392e-01 -5.60970965e-01  7.40444764e+00
 -3.67725171e+00 -4.15897727e+00  7.40444764e+00 -3.67725171e+00 -4.15897727e+00
  3.50295301e+00 -4.79326502e+00 -6.54144232e+00  3.50295301e+00 -4.79326502e+00
 -6.54144232e+00 -9.95787748e-01  4.12811525e+00  1.39381726e+00 -9.95787748e-01
  4.12811525e+00  1.39381726e+00 -9.95787748e-01  4.12811525e+00  1.39381726e+00
 -9.95787748e-01  4.12811525e+00  1.39381726e+00 -9.95787748e-01  4.12811525e+00
  1.39381726e+00 -9.95787748e-01  4.12811525e+00  1.39381726e+00 -9.95787748e-01
  4.12811525e+00  1.39381726e+00 -9.95787748e-01  4.12811525e+00  1.39381726e+00
 -4.25625055e+00  1.67944127e+00  9.94051265e-01 -4.25625055e+00  1.67944127e+00
  9.94051265e-01  5.42571279e-01  3.98191455e+00  2.78201888e+00  5.42571279e-01
  3.98191455e+00  2.78201888e+00 -2.90234521e+00  6.13510503e+00  2.26171782e+00
 -2.90234521e+00  6.13510503e+00  2.26171782e+00 -2.90234521e+00  6.13510503e+00
  2.26171782e+00 -2.90234521e+00  6.13510503e+00  2.26171782e+00 -2.90234521e+00
  6.13510503e+00  2.26171782e+00 -2.90234521e+00  6.13510503e+00  2.26171782e+00
 -2.90234521e+00  6.13510503e+00  2.26171782e+00 -2.90234521e+00  6.13510503e+00
  2.26171782e+00 -1.19493364e-01  4.77217727e+00 -3.74572303e-01 -1.19493364e-01
  4.77217727e+00 -3.74572303e-01 -3.28850476e+00  3.45800639e-01 -3.22145290e+00
 -3.28850476e+00  3.45800639e-01 -3.22145290e+00 -3.28850476e+00  3.45800639e-01
 -3.22145290e+00 -3.28850476e+00  3.45800639e-01 -3.22145290e+00 -3.28850476e+00
  3.45800639e-01 -3.22145290e+00 -3.28850476e+00  3.45800639e-01 -3.22145290e+00
 -3.28850476e+00  3.45800639e-01 -3.22145290e+00 -3.28850476e+00  3.45800639e-01
 -3.22145290e+00 -2.77897130e+00 -1.40719953e-03  5.43253022e+00 -2.77897130e+00
 -1.40719953e-03  5.43253022e+00 -2.77897130e+00 -1.40719953e-03  5.43253022e+00
 -2.77897130e+00 -1.40719953e-03  5.43253022e+00 -2.77897130e+00 -1.40719953e-03
  5.43253022e+00 -2.77897130e+00 -1.40719953e-03  5.43253022e+00 -2.77897130e+00
 -1.40719953e-03  5.43253022e+00 -2.77897130e+00 -1.40719953e-03  5.43253022e+00
  2.33550318e-01 -7.62877602e-01  3.11886411e+00  2.33550318e-01 -7.62877602e-01
  3.11886411e+00 -2.25679643e+00 -2.21200229e+00  7.21629517e+00 -2.25679643e+00
 -2.21200229e+00  7.21629517e+00 -2.25679643e+00 -2.21200229e+00  7.21629517e+00
 -2.25679643e+00 -2.21200229e+00  7.21629517e+00 -2.25679643e+00 -2.21200229e+00
  7.21629517e+00 -2.25679643e+00 -2.21200229e+00  7.21629517e+00 -2.25679643e+00
 -2.21200229e+00  7.21629517e+00 -2.25679643e+00 -2.21200229e+00  7.21629517e+00
 -4.82471020e+00  2.11264491e-01  5.16195042e+00 -4.82471020e+00  2.11264491e-01
  5.16195042e+00 -2.10381770e+00  1.76979708e+00  6.31308355e+00 -2.10381770e+00
  1.76979708e+00  6.31308355e+00 -2.99709691e+00 -3.97610803e+00  6.42679233e+00
 -2.99709691e+00 -3.97610803e+00  6.42679233e+00 -3.14096755e+00 -1.88548015e+00
  9.06133624e+00 -3.14096755e+00 -1.88548015e+00  9.06133624e+00 -2.20553157e-01
 -2.45554812e+00  7.53259069e+00 -2.20553157e-01 -2.45554812e+00  7.53259069e+00
 -3.79895788e+00  5.60923853e+00  4.05401675e+00 -3.79895788e+00  5.60923853e+00
  4.05401675e+00 -4.40384433e+00  6.38058779e+00  8.54082463e-01 -4.40384433e+00
  6.38058779e+00  8.54082463e-01 -1.98060787e+00  7.97230774e+00  2.52804167e+00
 -1.98060787e+00  7.97230774e+00  2.52804167e+00
Total Energy                               R     -5.975009489026490e+02
Alpha Orbital Energies                     R   N=         300
 -1.91477145e+01 -1.43328375e+01 -1.02819000e+01 -1.02263532e+01 -1.02181969e+01
 -1.02146213e+01 -1.02135533e+01 -1.02124952e+01 -1.02106654e+01 -1.02079718e+01
 -1.02062701e+01 -1.01986389e+01 -1.01863071e+01 -1.01833106e+01 -1.04549895e+00
 -9.16564383e-01 -8.71581069e-01 -7.93714552e-01 -7.71833337e-01 -7.62744546e-01
 -7.46660658e-01 -6.90644956e-01 -6.40925982e-01 -6.22098857e-01 -6.16455371e-01
 -6.10989646e-01 -5.65130046e-01 -5.20673281e-01 -4.92570323e-01 -4.85740626e-01
 -4.73090667e-01 -4.67571471e-01 -4.50672344e-01 -4.46588320e-01 -4.38274370e-01
 -4.33203498e-01 -4.26523804e-01 -4.14403282e-01 -3.93558361e-01 -3.81621271e-01
 -3.78169407e-01 -3.75046048e-01 -3.71655817e-01 -3.63565239e-01 -3.60357434e-01
 -3.51361839e-01 -3.49750615e-01 -3.43915130e-01 -2.70508255e-01 -2.68072950e-01
 -2.59616255e-01 -2.27149899e-01 -6.44401186e-02 -2.53018560e-02 -4.76414494e-03
  8.46098071e-03  1.39626520e-02  1.74597970e-02  2.23477959e-02  2.82831883e-02
  3.19854569e-02  3.77804703e-02  4.28419604e-02  4.80511654e-02  5.15610975e-02
  5.68895932e-02  6.10466307e-02  6.70401420e-02  7.37908268e-02  7.95893028e-02
  8.15627459e-02  8.43906567e-02  9.03727251e-02  9.40950326e-02  9.92549275e-02
  1.01991958e-01  1.15322449e-01  1.19367147e-01  1.20705406e-01  1.26190409e-01
  1.30421417e-01  1.32924069e-01  1.35210336e-01  1.46674968e-01  1.48375838e-01
  1.54454310e-01  1.63060342e-01  1.65502411e-01  1.69280027e-01  1.74652029e-01
  1.75802759e-01  1.79089274e-01  1.83879053e-01  1.90607982e-01  1.91578745e-01
  1.96189030e-01  2.03495520e-01  2.04038186e-01  2.08824255e-01  2.13246059e-01
  2.16263833e-01  2.20625126e-01  2.29031259e-01  2.31830305e-01  2.38654700e-01
  2.46476812e-01  2.49641518e-01  2.51208033e-01  2.56884322e-01  2.61229179e-01
  2.63902694e-01  2.68178969e-01  2.70850551e-01  2.73296050e-01  2.79438573e-01
  2.86829059e-01  2.90665197e-01  2.93824016e-01  2.97248899e-01  3.05687080e-01
  3.08731571e-01  3.13513063e-01  3.21406741e-01  3.28140258e-01  3.28870976e-01
  3.35529557e-01  3.43767217e-01  3.48376260e-01  3.53232526e-01  3.61442971e-01
  3.66906010e-01  3.74377962e-01  3.76835458e-01  3.88862816e-01  4.12851160e-01
  4.20151838e-01  4.30836046e-01  4.42133664e-01  4.48079918e-01  4.85655740e-01
  5.07027937e-01  5.82051607e-01  6.01966932e-01  6.54867695e-01  6.62811100e-01
  6.69334489e-01  6.74226745e-01  6.78913811e-01  6.80863536e-01  6.93608178e-01
  6.97920739e-01  7.08013894e-01  7.17575224e-01  7.21167616e-01  7.30639852e-01
  7.31871923e-01  7.40056762e-01  7.43868917e-01  7.59331548e-01  7.61831179e-01