Generated by Psi4
     FORCE                           RHF                       TESTBAS
Number of atoms                            I               29
Charge                                     I                0
Multiplicity                               I                1
Number of electrons                        I               90
Number of alpha electrons                  I               45
Number of beta electrons                   I               45
Number of basis functions                  I              262
Number of independent functions            I              262
Atomic numbers                             I   N=          29
           6           6           6           1           1           7
           6           6           6           6           6           1
           1           1           1           1           6           1
           1           1           1           6           1           6
           1           1           1           1           1
Nuclear charges                            R   N=          29
  6.00000000e+00  6.00000000e+00  6.00000000e+00  1.00000000e+00  1.00000000e+00
  7.00000000e+00  6.00000000e+00  6.00000000e+00  6.00000000e+00  6.00000000e+00
  6.00000000e+00  1.00000000e+00  1.00000000e+00  1.00000000e+00  1.00000000e+00
  1.00000000e+00  6.00000000e+00  1.00000000e+00  1.00000000e+00  1.00000000e+00
  1.00000000e+00  6.00000000e+00  1.00000000e+00  6.00000000e+00  1.00000000e+00
  1.00000000e+00  1.00000000e+00  1.00000000e+00  1.00000000e+00
Current cartesian coordinates              R   N=          87
  2.00377470e+00 -6.66149061e-01 -1.37965342e+00  2.88454595e-01 -1.68648720e+00
  6.72268828e-01 -1.76768112e+00  1.80374763e-01  1.59274081e+00  1.43361028e+00
 -2.26973759e+00  2.30528803e+00 -6.91825982e-01 -3.38270965e+00 -2.84575703e-03
 -3.52639245e+00 -1.22185263e+00  3.22504393e+00  4.50189379e+00  5.60352794e-02
 -8.68534162e-01  6.06519956e+00  1.01150899e+00 -2.77289418e+00  5.15128246e+00
  1.26057012e+00 -5.23693803e+00  2.66707166e+00  5.39625157e-01 -5.77922463e+00
  1.11707462e+00 -4.16096407e-01 -3.86878909e+00  5.23561974e+00 -1.37728710e-01
  1.04286307e+00 -8.06607877e-01 -9.91095625e-01 -4.31657134e+00  7.99698409e+00
  1.55437620e+00 -2.32983653e+00  6.36321391e+00  1.99831220e+00 -6.72256715e+00
  1.94008140e+00  7.09944841e-01 -7.69373986e+00 -6.15578894e-01  2.55343954e+00
  2.81904335e+00 -2.87200129e+00  7.71475936e-01 -6.47950455e-02  5.11814004e-01
  2.03807712e+00  4.48602126e+00 -2.08457570e+00  3.87868288e+00  3.42889621e+00
  6.26508827e-01  3.55544039e+00  1.49960175e+00 -5.87768058e+00  7.63955561e-02
  3.88794223e+00 -2.61418665e+00 -1.77032502e+00  4.83413913e+00 -7.61266958e+00
 -1.66032196e+00  5.41112507e+00 -6.81117854e+00  6.07768007e-01  2.11218216e+00
 -5.57508374e+00  1.84713410e+00  4.95493487e+00 -8.03452323e+00 -3.38650239e+00
  4.34923147e+00 -9.39461520e+00 -7.03411076e-01  5.86244415e+00 -6.72831624e+00
 -2.21322938e+00  7.20524521e+00
Integer atomic weights                     I   N=          29
          12          12          12           1           1          14
          12          12          12          12          12           1
           1           1           1           1          12           1
           1           1           1          12           1          12
           1           1           1           1           1
Real atomic weights                        R   N=          29
  1.20000000e+01  1.20000000e+01  1.20000000e+01  1.00782503e+00  1.00782503e+00
  1.40030740e+01  1.20000000e+01  1.20000000e+01  1.20000000e+01  1.20000000e+01
  1.20000000e+01  1.00782503e+00  1.00782503e+00  1.00782503e+00  1.00782503e+00
  1.00782503e+00  1.20000000e+01  1.00782503e+00  1.00782503e+00  1.00782503e+00
  1.00782503e+00  1.20000000e+01  1.00782503e+00  1.20000000e+01  1.00782503e+00
  1.00782503e+00  1.00782503e+00  1.00782503e+00  1.00782503e+00
Number of primitive shells                 I              272
Number of contracted shells                I              130
Pure/Cartesian d shells                    I                1
Pure/Cartesian f shells                    I                1
Highest angular momentum                   I                2
Largest degree of contraction              I                6
Shell types                                I   N=         130
           0           0           1           0           1           2
           0           1           0           0           1           0
           1           2           0           1           0           0
           1           0           1           2           0           1
           0           0           0           0           0           0
           1           0           1           2           0           1
           0           0           1           0           1           2
           0           1           0           0           1           0
           1           2           0           1           0           0
           1           0           1           2           0           1
           0           0           1           0           1           2
           0           1           0           0           1           0
           1           2           0           1           0           0
           0           0           0           0           0           0
           0           0           0           0           1           0
           1           2           0           1           0           0
           0           0           0           0           0           0
           0           0           1           0           1           2
           0           1           0           0           0           0
           1           0           1           2           0           1
           0           0           0           0           0           0
           0           0           0           0
Number of primitives per shell             I   N=         130
           6           3           3           1           1           1
           1           1           6           3           3           1
           1           1           1           1           6           3
           3           1           1           1           1           1
           3           1           3           1           6           3
           3           1           1           1           1           1
           6           3           3           1           1           1
           1           1           6           3           3           1
           1           1           1           1           6           3
           3           1           1           1           1           1
           6           3           3           1           1           1
           1           1           6           3           3           1
           1           1           1           1           3           1
           3           1           3           1           3           1
           3           1           6           3           3           1
           1           1           1           1           3           1
           3           1           3           1           3           1
           6           3           3           1           1           1
           1           1           3           1           6           3
           3           1           1           1           1           1
           3           1           3           1           3           1
           3           1           3           1
Shell to atom map                          I   N=         130
           1           1           1           1           1           1
           1           1           2           2           2           2
           2           2           2           2           3           3
           3           3           3           3           3           3
           4           4           5           5           6           6
           6           6           6           6           6           6
           7           7           7           7           7           7
           7           7           8           8           8           8
           8           8           8           8           9           9
           9           9           9           9           9           9
          10          10          10          10          10          10
          10          10          11          11          11          11
          11          11          11          11          12          12
          13          13          14          14          15          15
          16          16          17          17          17          17
          17          17          17          17          18          18
          19          19          20          20          21          21
          22          22          22          22          22          22
          22          22          23          23          24          24
          24          24          24          24          24          24
          25          25          26          26          27          27
          28          28          29          29
Primitive exponents                        R   N=         272
  3.04752490e+03  4.57369510e+02  1.03948690e+02  2.92101550e+01  9.28666300e+00
  3.16392700e+00  7.86827240e+00  1.88128850e+00  5.44249300e-01  7.86827240e+00
  1.88128850e+00  5.44249300e-01  1.68714400e-01  1.68714400e-01  8.00000000e-01
  4.38000000e-02  4.38000000e-02  3.04752490e+03  4.57369510e+02  1.03948690e+02
  2.92101550e+01  9.28666300e+00  3.16392700e+00  7.86827240e+00  1.88128850e+00
  5.44249300e-01  7.86827240e+00  1.88128850e+00  5.44249300e-01  1.68714400e-01
  1.68714400e-01  8.00000000e-01  4.38000000e-02  4.38000000e-02  3.04752490e+03
  4.57369510e+02  1.03948690e+02  2.92101550e+01  9.28666300e+00  3.16392700e+00
  7.86827240e+00  1.88128850e+00  5.44249300e-01  7.86827240e+00  1.88128850e+00
  5.44249300e-01  1.68714400e-01  1.68714400e-01  8.00000000e-01  4.38000000e-02
  4.38000000e-02  1.87311370e+01  2.82539370e+00  6.40121700e-01  1.61277800e-01
  1.87311370e+01  2.82539370e+00  6.40121700e-01  1.61277800e-01  4.17351100e+03
  6.27457900e+02  1.42902100e+02  4.02343300e+01  1.28202100e+01  4.39043700e+00
  1.16263580e+01  2.71628000e+00  7.72218000e-01  1.16263580e+01  2.71628000e+00
  7.72218000e-01  2.12031300e-01  2.12031300e-01  8.00000000e-01  6.39000000e-02
  6.39000000e-02  3.04752490e+03  4.57369510e+02  1.03948690e+02  2.92101550e+01
  9.28666300e+00  3.16392700e+00  7.86827240e+00  1.88128850e+00  5.44249300e-01
  7.86827240e+00  1.88128850e+00  5.44249300e-01  1.68714400e-01  1.68714400e-01
  8.00000000e-01  4.38000000e-02  4.38000000e-02  3.04752490e+03  4.57369510e+02
  1.03948690e+02  2.92101550e+01  9.28666300e+00  3.16392700e+00  7.86827240e+00
  1.88128850e+00  5.44249300e-01  7.86827240e+00  1.88128850e+00  5.44249300e-01
  1.68714400e-01  1.68714400e-01  8.00000000e-01  4.38000000e-02  4.38000000e-02
  3.04752490e+03  4.57369510e+02  1.03948690e+02  2.92101550e+01  9.28666300e+00
  3.16392700e+00  7.86827240e+00  1.88128850e+00  5.44249300e-01  7.86827240e+00
  1.88128850e+00  5.44249300e-01  1.68714400e-01  1.68714400e-01  8.00000000e-01
  4.38000000e-02  4.38000000e-02  3.04752490e+03  4.57369510e+02  1.03948690e+02
  2.92101550e+01  9.28666300e+00  3.16392700e+00  7.86827240e+00  1.88128850e+00
  5.44249300e-01  7.86827240e+00  1.88128850e+00  5.44249300e-01  1.68714400e-01
  1.68714400e-01  8.00000000e-01  4.38000000e-02  4.38000000e-02  3.04752490e+03
  4.57369510e+02  1.03948690e+02  2.92101550e+01  9.28666300e+00  3.16392700e+00
  7.86827240e+00  1.88128850e+00  5.44249300e-01  7.86827240e+00  1.88128850e+00
  5.44249300e-01  1.68714400e-01  1.68714400e-01  8.00000000e-01  4.38000000e-02
  4.38000000e-02  1.87311370e+01  2.82539370e+00  6.40121700e-01  1.61277800e-01
  1.87311370e+01  2.82539370e+00  6.40121700e-01  1.61277800e-01  1.87311370e+01
  2.82539370e+00  6.40121700e-01  1.61277800e-01  1.87311370e+01  2.82539370e+00
  6.40121700e-01  1.61277800e-01  1.87311370e+01  2.82539370e+00  6.40121700e-01
  1.61277800e-01  3.04752490e+03  4.57369510e+02  1.03948690e+02  2.92101550e+01
  9.28666300e+00  3.16392700e+00  7.86827240e+00  1.88128850e+00  5.44249300e-01
  7.86827240e+00  1.88128850e+00  5.44249300e-01  1.68714400e-01  1.68714400e-01
  8.00000000e-01  4.38000000e-02  4.38000000e-02  1.87311370e+01  2.82539370e+00
  6.40121700e-01  1.61277800e-01  1.87311370e+01  2.82539370e+00  6.40121700e-01
  1.61277800e-01  1.87311370e+01  2.82539370e+00  6.40121700e-01  1.61277800e-01
  1.87311370e+01  2.82539370e+00  6.40121700e-01  1.61277800e-01  3.04752490e+03
  4.57369510e+02  1.03948690e+02  2.92101550e+01  9.28666300e+00  3.16392700e+00
  7.86827240e+00  1.88128850e+00  5.44249300e-01  7.86827240e+00  1.88128850e+00
  5.44249300e-01  1.68714400e-01  1.68714400e-01  8.00000000e-01  4.38000000e-02
  4.38000000e-02  1.87311370e+01  2.82539370e+00  6.40121700e-01  1.61277800e-01
  3.04752490e+03  4.57369510e+02  1.03948690e+02  2.92101550e+01  9.28666300e+00
  3.16392700e+00  7.86827240e+00  1.88128850e+00  5.44249300e-01  7.86827240e+00
  1.88128850e+00  5.44249300e-01  1.68714400e-01  1.68714400e-01  8.00000000e-01
  4.38000000e-02  4.38000000e-02  1.87311370e+01  2.82539370e+00  6.40121700e-01
  1.61277800e-01  1.87311370e+01  2.82539370e+00  6.40121700e-01  1.61277800e-01
  1.87311370e+01  2.82539370e+00  6.40121700e-01  1.61277800e-01  1.87311370e+01
  2.82539370e+00  6.40121700e-01  1.61277800e-01  1.87311370e+01  2.82539370e+00
  6.40121700e-01  1.61277800e-01
Contraction coefficients                   R   N=         272
  1.83470016e-03  1.40373012e-02  6.88426061e-02  2.32184421e-01  4.67941342e-01
  3.62312032e-01 -1.19332409e-01 -1.60854212e-01  1.14345648e+00  6.89990956e-02
  3.16423980e-01  7.44308252e-01  1.00000000e+00  1.00000000e+00  1.00000000e+00
  1.00000000e+00  1.00000000e+00  1.83470016e-03  1.40373012e-02  6.88426061e-02
  2.32184421e-01  4.67941342e-01  3.62312032e-01 -1.19332409e-01 -1.60854212e-01
  1.14345648e+00  6.89990956e-02  3.16423980e-01  7.44308252e-01  1.00000000e+00
  1.00000000e+00  1.00000000e+00  1.00000000e+00  1.00000000e+00  1.83470016e-03
  1.40373012e-02  6.88426061e-02  2.32184421e-01  4.67941342e-01  3.62312032e-01
 -1.19332409e-01 -1.60854212e-01  1.14345648e+00  6.89990956e-02  3.16423980e-01
  7.44308252e-01  1.00000000e+00  1.00000000e+00  1.00000000e+00  1.00000000e+00
  1.00000000e+00  3.34945995e-02  2.34726947e-01  8.13757318e-01  1.00000000e+00
  3.34945995e-02  2.34726947e-01  8.13757318e-01  1.00000000e+00  1.83479944e-03
  1.39949958e-02  6.85869792e-02  2.32240930e-01  4.69069858e-01  3.60454891e-01
 -1.14961023e-01 -1.69118034e-01  1.14585223e+00  6.75800232e-02  3.23907111e-01
  7.40895255e-01  1.00000000e+00  1.00000000e+00  1.00000000e+00  1.00000000e+00
  1.00000000e+00  1.83470016e-03  1.40373012e-02  6.88426061e-02  2.32184421e-01
  4.67941342e-01  3.62312032e-01 -1.19332409e-01 -1.60854212e-01  1.14345648e+00
  6.89990956e-02  3.16423980e-01  7.44308252e-01  1.00000000e+00  1.00000000e+00
  1.00000000e+00  1.00000000e+00  1.00000000e+00  1.83470016e-03  1.40373012e-02
  6.88426061e-02  2.32184421e-01  4.67941342e-01  3.62312032e-01 -1.19332409e-01
 -1.60854212e-01  1.14345648e+00  6.89990956e-02  3.16423980e-01  7.44308252e-01
  1.00000000e+00  1.00000000e+00  1.00000000e+00  1.00000000e+00  1.00000000e+00
  1.83470016e-03  1.40373012e-02  6.88426061e-02  2.32184421e-01  4.67941342e-01
  3.62312032e-01 -1.19332409e-01 -1.60854212e-01  1.14345648e+00  6.89990956e-02
  3.16423980e-01  7.44308252e-01  1.00000000e+00  1.00000000e+00  1.00000000e+00
  1.00000000e+00  1.00000000e+00  1.83470016e-03  1.40373012e-02  6.88426061e-02
  2.32184421e-01  4.67941342e-01  3.62312032e-01 -1.19332409e-01 -1.60854212e-01
  1.14345648e+00  6.89990956e-02  3.16423980e-01  7.44308252e-01  1.00000000e+00
  1.00000000e+00  1.00000000e+00  1.00000000e+00  1.00000000e+00  1.83470016e-03
  1.40373012e-02  6.88426061e-02  2.32184421e-01  4.67941342e-01  3.62312032e-01
 -1.19332409e-01 -1.60854212e-01  1.14345648e+00  6.89990956e-02  3.16423980e-01
  7.44308252e-01  1.00000000e+00  1.00000000e+00  1.00000000e+00  1.00000000e+00
  1.00000000e+00  3.34945995e-02  2.34726947e-01  8.13757318e-01  1.00000000e+00
  3.34945995e-02  2.34726947e-01  8.13757318e-01  1.00000000e+00  3.34945995e-02
  2.34726947e-01  8.13757318e-01  1.00000000e+00  3.34945995e-02  2.34726947e-01
  8.13757318e-01  1.00000000e+00  3.34945995e-02  2.34726947e-01  8.13757318e-01
  1.00000000e+00  1.83470016e-03  1.40373012e-02  6.88426061e-02  2.32184421e-01
  4.67941342e-01  3.62312032e-01 -1.19332409e-01 -1.60854212e-01  1.14345648e+00
  6.89990956e-02  3.16423980e-01  7.44308252e-01  1.00000000e+00  1.00000000e+00
  1.00000000e+00  1.00000000e+00  1.00000000e+00  3.34945995e-02  2.34726947e-01
  8.13757318e-01  1.00000000e+00  3.34945995e-02  2.34726947e-01  8.13757318e-01
  1.00000000e+00  3.34945995e-02  2.34726947e-01  8.13757318e-01  1.00000000e+00
  3.34945995e-02  2.34726947e-01  8.13757318e-01  1.00000000e+00  1.83470016e-03
  1.40373012e-02  6.88426061e-02  2.32184421e-01  4.67941342e-01  3.62312032e-01
 -1.19332409e-01 -1.60854212e-01  1.14345648e+00  6.89990956e-02  3.16423980e-01
  7.44308252e-01  1.00000000e+00  1.00000000e+00  1.00000000e+00  1.00000000e+00
  1.00000000e+00  3.34945995e-02  2.34726947e-01  8.13757318e-01  1.00000000e+00
  1.83470016e-03  1.40373012e-02  6.88426061e-02  2.32184421e-01  4.67941342e-01
  3.62312032e-01 -1.19332409e-01 -1.60854212e-01  1.14345648e+00  6.89990956e-02
  3.16423980e-01  7.44308252e-01  1.00000000e+00  1.00000000e+00  1.00000000e+00
  1.00000000e+00  1.00000000e+00  3.34945995e-02  2.34726947e-01  8.13757318e-01
  1.00000000e+00  3.34945995e-02  2.34726947e-01  8.13757318e-01  1.00000000e+00
  3.34945995e-02  2.34726947e-01  8.13757318e-01  1.00000000e+00  3.34945995e-02
  2.34726947e-01  8.13757318e-01  1.00000000e+00  3.34945995e-02  2.34726947e-01
  8.13757318e-01  1.00000000e+00
Coordinates of each shell                  R   N=         390
  2.00377470e+00 -6.66149061e-01 -1.37965342e+00  2.00377470e+00 -6.66149061e-01
 -1.37965342e+00  2.00377470e+00 -6.66149061e-01 -1.37965342e+00  2.00377470e+00
 -6.66149061e-01 -1.37965342e+00  2.00377470e+00 -6.66149061e-01 -1.37965342e+00
  2.00377470e+00 -6.66149061e-01 -1.37965342e+00  2.00377470e+00 -6.66149061e-01
 -1.37965342e+00  2.00377470e+00 -6.66149061e-01 -1.37965342e+00  2.88454595e-01
 -1.68648720e+00  6.72268828e-01  2.88454595e-01 -1.68648720e+00  6.72268828e-01
  2.88454595e-01 -1.68648720e+00  6.72268828e-01  2.88454595e-01 -1.68648720e+00
  6.72268828e-01  2.88454595e-01 -1.68648720e+00  6.72268828e-01  2.88454595e-01
 -1.68648720e+00  6.72268828e-01  2.88454595e-01 -1.68648720e+00  6.72268828e-01
  2.88454595e-01 -1.68648720e+00  6.72268828e-01 -1.76768112e+00  1.80374763e-01
  1.59274081e+00 -1.76768112e+00  1.80374763e-01  1.59274081e+00 -1.76768112e+00
  1.80374763e-01  1.59274081e+00 -1.76768112e+00  1.80374763e-01  1.59274081e+00
 -1.76768112e+00  1.80374763e-01  1.59274081e+00 -1.76768112e+00  1.80374763e-01
  1.59274081e+00 -1.76768112e+00  1.80374763e-01  1.59274081e+00 -1.76768112e+00
  1.80374763e-01  1.59274081e+00  1.43361028e+00 -2.26973759e+00  2.30528803e+00
  1.43361028e+00 -2.26973759e+00  2.30528803e+00 -6.91825982e-01 -3.38270965e+00
 -2.84575703e-03 -6.91825982e-01 -3.38270965e+00 -2.84575703e-03 -3.52639245e+00
 -1.22185263e+00  3.22504393e+00 -3.52639245e+00 -1.22185263e+00  3.22504393e+00
 -3.52639245e+00 -1.22185263e+00  3.22504393e+00 -3.52639245e+00 -1.22185263e+00
  3.22504393e+00 -3.52639245e+00 -1.22185263e+00  3.22504393e+00 -3.52639245e+00
 -1.22185263e+00  3.22504393e+00 -3.52639245e+00 -1.22185263e+00  3.22504393e+00
 -3.52639245e+00 -1.22185263e+00  3.22504393e+00  4.50189379e+00  5.60352794e-02
 -8.68534162e-01  4.50189379e+00  5.60352794e-02 -8.68534162e-01  4.50189379e+00
  5.60352794e-02 -8.68534162e-01  4.50189379e+00  5.60352794e-02 -8.68534162e-01
  4.50189379e+00  5.60352794e-02 -8.68534162e-01  4.50189379e+00  5.60352794e-02
 -8.68534162e-01  4.50189379e+00  5.60352794e-02 -8.68534162e-01  4.50189379e+00
  5.60352794e-02 -8.68534162e-01  6.06519956e+00  1.01150899e+00 -2.77289418e+00
  6.06519956e+00  1.01150899e+00 -2.77289418e+00  6.06519956e+00  1.01150899e+00
 -2.77289418e+00  6.06519956e+00  1.01150899e+00 -2.77289418e+00  6.06519956e+00
  1.01150899e+00 -2.77289418e+00  6.06519956e+00  1.01150899e+00 -2.77289418e+00
  6.06519956e+00  1.01150899e+00 -2.77289418e+00  6.06519956e+00  1.01150899e+00
 -2.77289418e+00  5.15128246e+00  1.26057012e+00 -5.23693803e+00  5.15128246e+00
  1.26057012e+00 -5.23693803e+00  5.15128246e+00  1.26057012e+00 -5.23693803e+00
  5.15128246e+00  1.26057012e+00 -5.23693803e+00  5.15128246e+00  1.26057012e+00
 -5.23693803e+00  5.15128246e+00  1.26057012e+00 -5.23693803e+00  5.15128246e+00
  1.26057012e+00 -5.23693803e+00  5.15128246e+00  1.26057012e+00 -5.23693803e+00
  2.66707166e+00  5.39625157e-01 -5.77922463e+00  2.66707166e+00  5.39625157e-01
 -5.77922463e+00  2.66707166e+00  5.39625157e-01 -5.77922463e+00  2.66707166e+00
  5.39625157e-01 -5.77922463e+00  2.66707166e+00  5.39625157e-01 -5.77922463e+00
  2.66707166e+00  5.39625157e-01 -5.77922463e+00  2.66707166e+00  5.39625157e-01
 -5.77922463e+00  2.66707166e+00  5.39625157e-01 -5.77922463e+00  1.11707462e+00
 -4.16096407e-01 -3.86878909e+00  1.11707462e+00 -4.16096407e-01 -3.86878909e+00
  1.11707462e+00 -4.16096407e-01 -3.86878909e+00  1.11707462e+00 -4.16096407e-01
 -3.86878909e+00  1.11707462e+00 -4.16096407e-01 -3.86878909e+00  1.11707462e+00
 -4.16096407e-01 -3.86878909e+00  1.11707462e+00 -4.16096407e-01 -3.86878909e+00
  1.11707462e+00 -4.16096407e-01 -3.86878909e+00  5.23561974e+00 -1.37728710e-01
  1.04286307e+00  5.23561974e+00 -1.37728710e-01  1.04286307e+00 -8.06607877e-01
 -9.91095625e-01 -4.31657134e+00 -8.06607877e-01 -9.91095625e-01 -4.31657134e+00
  7.99698409e+00  1.55437620e+00 -2.32983653e+00  7.99698409e+00  1.55437620e+00
 -2.32983653e+00  6.36321391e+00  1.99831220e+00 -6.72256715e+00  6.36321391e+00
  1.99831220e+00 -6.72256715e+00  1.94008140e+00  7.09944841e-01 -7.69373986e+00
  1.94008140e+00  7.09944841e-01 -7.69373986e+00 -6.15578894e-01  2.55343954e+00
  2.81904335e+00 -6.15578894e-01  2.55343954e+00  2.81904335e+00 -6.15578894e-01
  2.55343954e+00  2.81904335e+00 -6.15578894e-01  2.55343954e+00  2.81904335e+00
 -6.15578894e-01  2.55343954e+00  2.81904335e+00 -6.15578894e-01  2.55343954e+00
  2.81904335e+00 -6.15578894e-01  2.55343954e+00  2.81904335e+00 -6.15578894e-01
  2.55343954e+00  2.81904335e+00 -2.87200129e+00  7.71475936e-01 -6.47950455e-02
 -2.87200129e+00  7.71475936e-01 -6.47950455e-02  5.11814004e-01  2.03807712e+00
  4.48602126e+00  5.11814004e-01  2.03807712e+00  4.48602126e+00 -2.08457570e+00
  3.87868288e+00  3.42889621e+00 -2.08457570e+00  3.87868288e+00  3.42889621e+00
  6.26508827e-01  3.55544039e+00  1.49960175e+00  6.26508827e-01  3.55544039e+00
  1.49960175e+00 -5.87768058e+00  7.63955561e-02  3.88794223e+00 -5.87768058e+00
  7.63955561e-02  3.88794223e+00 -5.87768058e+00  7.63955561e-02  3.88794223e+00
 -5.87768058e+00  7.63955561e-02  3.88794223e+00 -5.87768058e+00  7.63955561e-02
  3.88794223e+00 -5.87768058e+00  7.63955561e-02  3.88794223e+00 -5.87768058e+00
  7.63955561e-02  3.88794223e+00 -5.87768058e+00  7.63955561e-02  3.88794223e+00
 -2.61418665e+00 -1.77032502e+00  4.83413913e+00 -2.61418665e+00 -1.77032502e+00
  4.83413913e+00 -7.61266958e+00 -1.66032196e+00  5.41112507e+00 -7.61266958e+00
 -1.66032196e+00  5.41112507e+00 -7.61266958e+00 -1.66032196e+00  5.41112507e+00
 -7.61266958e+00 -1.66032196e+00  5.41112507e+00 -7.61266958e+00 -1.66032196e+00
  5.41112507e+00 -7.61266958e+00 -1.66032196e+00  5.41112507e+00 -7.61266958e+00
 -1.66032196e+00  5.41112507e+00 -7.61266958e+00 -1.66032196e+00  5.41112507e+00
 -6.81117854e+00  6.07768007e-01  2.11218216e+00 -6.81117854e+00  6.07768007e-01
  2.11218216e+00 -5.57508374e+00  1.84713410e+00  4.95493487e+00 -5.57508374e+00
  1.84713410e+00  4.95493487e+00 -8.03452323e+00 -3.38650239e+00  4.34923147e+00
 -8.03452323e+00 -3.38650239e+00  4.34923147e+00 -9.39461520e+00 -7.03411076e-01
  5.86244415e+00 -9.39461520e+00 -7.03411076e-01  5.86244415e+00 -6.72831624e+00
 -2.21322938e+00  7.20524521e+00 -6.72831624e+00 -2.21322938e+00  7.20524521e+00
Total Energy                               R     -4.841779135254017e+02
Alpha Orbital Energies                     R   N=         262
 -1.43219204e+01 -1.02191437e+01 -1.02107333e+01 -1.02008189e+01 -1.01956226e+01
 -1.01954253e+01 -1.01939703e+01 -1.01928056e+01 -1.01926597e+01 -1.01874392e+01
 -1.01786040e+01 -1.01756892e+01 -9.07501123e-01 -8.58220771e-01 -7.91276900e-01
 -7.51966259e-01 -7.46984454e-01 -7.14889781e-01 -6.83999837e-01 -6.16145495e-01
 -6.09185448e-01 -5.96848861e-01 -5.74416032e-01 -5.14324494e-01 -4.80451324e-01
 -4.70842578e-01 -4.62461502e-01 -4.55987332e-01 -4.45067961e-01 -4.24374182e-01
 -4.19827552e-01 -4.12100150e-01 -4.01959381e-01 -3.89495393e-01 -3.72880033e-01
 -3.66827031e-01 -3.64587123e-01 -3.49513184e-01 -3.46879214e-01 -3.42765982e-01
 -3.36063849e-01 -3.29025461e-01 -2.54450011e-01 -2.46683420e-01 -2.23079614e-01
 -1.42786377e-02 -1.14946335e-02  3.10877742e-03  1.11633548e-02  1.63615122e-02
  2.41343145e-02  2.78597127e-02  3.38158790e-02  4.41771359e-02  4.57053756e-02
  4.76000200e-02  5.28708365e-02  6.00998886e-02  6.70887240e-02  7.28504731e-02
  7.71025525e-02  7.91181948e-02  8.71730773e-02  9.28680640e-02  9.77216669e-02
  9.98670589e-02  1.08124080e-01  1.16022277e-01  1.23805303e-01  1.25542822e-01
  1.29244725e-01  1.34321170e-01  1.36449168e-01  1.45739537e-01  1.46653273e-01
  1.57562078e-01  1.60271497e-01  1.66333933e-01  1.75448731e-01  1.77824465e-01
  1.80702996e-01  1.86211537e-01  1.92092086e-01  2.01232663e-01  2.02167429e-01
  2.09216506e-01  2.10695956e-01  2.12093946e-01  2.20356309e-01  2.21099708e-01
  2.25940060e-01  2.29237066e-01  2.32087771e-01  2.35091349e-01  2.42202925e-01
  2.49634475e-01  2.55858068e-01  2.58498635e-01  2.63559442e-01  2.66995429e-01
  2.68111454e-01  2.78242305e-01  2.79548490e-01  2.82164300e-01  2.86011059e-01
  2.95653339e-01  2.97136058e-01  3.03239997e-01  3.09580108e-01  3.16786313e-01
  3.31895847e-01  3.33501714e-01  3.41514376e-01  3.51505727e-01  3.54196219e-01
  3.60379713e-01  3.63312008e-01  3.82953196e-01  3.91155475e-01  3.98833803e-01
  4.03795599e-01  4.20604436e-01  4.65813653e-01  5.69036455e-01  6.04470015e-01
  6.43931371e-01  6.55103231e-01  6.59785265e-01  6.68662016e-01  6.75681286e-01
  6.77916692e-01  6.95384044e-01  7.05533100e-01  7.16824605e-01  7.22433193e-01
  7.28533588e-01  7.34482440e-01  7.42454716e-01  7.48955917e-01  7.53757095e-01
  7.59317888e-01  7.74548910e-01  7.86368704e-01  7.98446160e-01  8.06835100e-01
  8.25739422e-01  8.39124566e-01  8.50434354e-01  8.63494218e-01  8.97898044e-01
  9.06686381e-01  9.20038274e-01  9.36020321e-01  9.42557871e-01  9.50458304e-01
  9.54058234e-01  9.63383872e-01  9.75456156e-01  9.82629115e-01  9.93254739e-01
  1.01813558e+00  1.02263324e+00  1.03122083e+00  1.03683928e+00  1.05061985e+00
  1.07392709e+00  1.08140182e+00  1.10106350e+00  1.10462202e+00  1.11334417e+00
  1.12695357e+00  1.13213189e+00  1.14361426e+00  1.14912620e+00  1.17241136e+00
  1.19149482e+00  1.19935909e+00  1.21679552e+00  1.22305613e+00  1.26216828e+00
  1.27532860e+00  1.32804541e+00  1.33401395e+00  1.36951397e+00  1.40211855e+00
  1.44175701e+00  1.44919426e+00  1.47185291e+00  1.48372428e+00  1.48612031e+00
  1.51001076e+00  1.51329496e+00  1.53045219e+00  1.56985882e+00  1.61757306e+00
  1.63860082e+00  1.70760131e+00  1.74281404e+00  1.75255212e+00  1.81476379e+00
  1.84365902e+00  1.85351005e+00  1.86944239e+00  1.89978133e+00  1.91396382e+00
  1.92398483e+00  1.94061571e+00  1.96478320e+00  1.97886061e+00  1.99938508e+00
  2.01587355e+00  2.03005808e+00  2.06525391e+00  2.07305820e+00  2.08566697e+00
  2.11098950e+00  2.12215437e+00  2.14761885e+00  2.16930883e+00  2.17700153e+00
  2.19422077e+00  2.20398201e+00  2.23068338e+00  2.25920720e+00  2.28068058e+00
  2.29069849e+00  2.31085366e+00  2.33111350e+00  2.35117682e+00  2.36340101e+00
  2.40004719e+00  2.42517976e+00  2.46213371e+00  2.52593292e+00  2.54253736e+00
  2.60089083e+00  2.61531038e+00  2.62516806e+00  2.65587857e+00  2.66165376e+00
  2.74434426e+00  2.75044662e+00  2.75710570e+00  2.78264357e+00  2.81376672e+00
  2.82386245e+00  2.91054817e+00  2.98449279e+00  3.06351440e+00  3.40216839e+00
  4.11428098e+00  4.24398524e+00  4.25007196e+00  4.25807534e+00  4.27698699e+00
  4.32140639e+00  4.38771844e+00  4.39682295e+00  4.46763498e+00  4.51302877e+00
  4.64071886e+00  4.72091055e+00
Alpha MO coefficients                      R   N=       68644
 -3.45344652e-07 -5.44447715e-06  1.06760648e-05 -9.79659762e-06 -6.40640352e-06
 -9.83497083e-05 -9.11153144e-05  2.79385489e-05  1.64294460e-04  8.61165501e-07
 -3.70775892e-06  1.08578228e-05 -2.23965263e-07 -1.11419041e-05 -4.67531772e-06
  5.42432655e-03 -3.33137478e-03 -1.45756552e-03  1.00078049e-03  1.27323108e-05
  1.25937398e-04  1.98968156e-05  2.01698038e-06  6.53780948e-06 -4.84520960e-04
  3.93798258e-05 -1.25083485e-04 -2.49549752e-04 -4.87551913e-05  1.44673328e-05
 -2.86882272e-05  1.94090116e-06  4.87620523e-05 -1.72655081e-05 -8.02878899e-03
 -1.42049938e-03 -8.47442036e-04  8.86900558e-04 -3.61183162e-05 -9.29008979e-05
 -1.80080985e-04 -1.38858549e-04  1.30066807e-04  1.13674248e-03 -3.76583347e-05
 -8.50932494e-05  5.81223997e-04  2.68696780e-05 -5.82146866e-06  2.49535154e-05
  7.82774164e-05 -1.26823443e-04 -6.58733922e-05  4.07282292e-03  3.63025023e-04
 -2.29020450e-03 -4.71919049e-04  3.46641867e-05  1.58430804e-04  3.61848569e-05