Generated by Psi4
     FORCE                           RHF                       TESTBAS
Number of atoms                            I               27
Charge                                     I                0
Multiplicity                               I                1
Number of electrons                        I               94
Number of alpha electrons                  I               47
Number of beta electrons                   I               47
Number of basis functions                  I              275
Number of independent functions            I              275
Atomic numbers                             I   N=          27
           6           6           6           6           6           6
           7           6           6           1           1           1
           1           1           6           6           1           1
           7           6           1           1           1           1
           1           1           1
Nuclear charges                            R   N=          27
  6.00000000e+00  6.00000000e+00  6.00000000e+00  6.00000000e+00  6.00000000e+00
  6.00000000e+00  7.00000000e+00  6.00000000e+00  6.00000000e+00  1.00000000e+00
  1.00000000e+00  1.00000000e+00  1.00000000e+00  1.00000000e+00  6.00000000e+00
  6.00000000e+00  1.00000000e+00  1.00000000e+00  7.00000000e+00  6.00000000e+00
  1.00000000e+00  1.00000000e+00  1.00000000e+00  1.00000000e+00  1.00000000e+00
  1.00000000e+00  1.00000000e+00
Current cartesian coordinates              R   N=          81
 -4.73123218e-01 -1.21290741e+00 -9.24299128e-01  2.69581373e+00  1.26742355e+00
  1.97646280e+00  1.58953287e+00  4.68778630e-01 -3.07790229e-01  4.73383358e+00
  2.92598038e+00  1.90250091e+00  5.70177341e+00  3.81487517e+00 -4.20440299e-01
 -6.21398831e-01 -1.24993788e+00 -3.51685040e+00  1.21330539e+00  3.06420979e-01
 -4.55016522e+00  2.60480050e+00  1.38407143e+00 -2.62449172e+00  4.65438436e+00
  3.05546940e+00 -2.71079084e+00  7.29529291e+00  5.11088189e+00 -4.20954036e-01
  5.40700496e+00  3.73594199e+00 -4.49816542e+00  1.97313116e+00  5.92214053e-01
  3.77780500e+00  1.50624456e+00  5.76048344e-01 -6.41404885e+00 -1.90150765e+00
 -2.28421254e+00 -4.73178968e+00 -2.14698232e+00 -2.59887184e+00  9.04898646e-01
 -4.15627989e+00 -8.81421291e-01  2.13555077e+00 -1.01598553e+00 -3.44588222e+00
  2.42470201e+00 -3.08045007e+00 -4.16801099e+00 -7.77542929e-02 -5.59725482e+00
 -2.19135614e+00  4.10171862e+00 -7.51044935e+00 -3.94130742e+00  3.15357708e+00
 -5.38928987e+00 -1.07607893e-01  6.31160268e-01 -3.20494573e+00  7.29797749e-01
  3.02338432e+00  5.60109545e+00  3.55092521e+00  3.65649895e+00 -6.43493082e+00
 -8.93090483e-01  5.24392294e+00 -6.60405049e+00 -5.57544338e+00  2.26352320e+00
 -8.80819741e+00 -3.08703892e+00  1.75200269e+00 -8.63524199e+00 -4.64789654e+00
  4.74043653e+00
Integer atomic weights                     I   N=          27
          12          12          12          12          12          12
          14          12          12           1           1           1
           1           1          12          12           1           1
          14          12           1           1           1           1
           1           1           1
Real atomic weights                        R   N=          27
  1.20000000e+01  1.20000000e+01  1.20000000e+01  1.20000000e+01  1.20000000e+01
  1.20000000e+01  1.40030740e+01  1.20000000e+01  1.20000000e+01  1.00782503e+00
  1.00782503e+00  1.00782503e+00  1.00782503e+00  1.00782503e+00  1.20000000e+01
  1.20000000e+01  1.00782503e+00  1.00782503e+00  1.40030740e+01  1.20000000e+01
  1.00782503e+00  1.00782503e+00  1.00782503e+00  1.00782503e+00  1.00782503e+00
  1.00782503e+00  1.00782503e+00
Number of primitive shells                 I              277
Number of contracted shells                I              132
Pure/Cartesian d shells                    I                1
Pure/Cartesian f shells                    I                1
Highest angular momentum                   I                2
Largest degree of contraction              I                6
Shell types                                I   N=         132
           0           0           1           0           1           2
           0           1           0           0           1           0
           1           2           0           1           0           0
           1           0           1           2           0           1
           0           0           1           0           1           2
           0           1           0           0           1           0
           1           2           0           1           0           0
           1           0           1           2           0           1
           0           0           1           0           1           2
           0           1           0           0           1           0
           1           2           0           1           0           0
           1           0           1           2           0           1
           0           0           0           0           0           0
           0           0           0           0           0           0
           1           0           1           2           0           1
           0           0           1           0           1           2
           0           1           0           0           0           0
           0           0           1           0           1           2
           0           1           0           0           1           0
           1           2           0           1           0           0
           0           0           0           0           0           0
           0           0           0           0           0           0
Number of primitives per shell             I   N=         132
           6           3           3           1           1           1
           1           1           6           3           3           1
           1           1           1           1           6           3
           3           1           1           1           1           1
           6           3           3           1           1           1
           1           1           6           3           3           1
           1           1           1           1           6           3
           3           1           1           1           1           1
           6           3           3           1           1           1
           1           1           6           3           3           1
           1           1           1           1           6           3
           3           1           1           1           1           1
           3           1           3           1           3           1
           3           1           3           1           6           3
           3           1           1           1           1           1
           6           3           3           1           1           1
           1           1           3           1           3           1
           6           3           3           1           1           1
           1           1           6           3           3           1
           1           1           1           1           3           1
           3           1           3           1           3           1
           3           1           3           1           3           1
Shell to atom map                          I   N=         132
           1           1           1           1           1           1
           1           1           2           2           2           2
           2           2           2           2           3           3
           3           3           3           3           3           3
           4           4           4           4           4           4
           4           4           5           5           5           5
           5           5           5           5           6           6
           6           6           6           6           6           6
           7           7           7           7           7           7
           7           7           8           8           8           8
           8           8           8           8           9           9
           9           9           9           9           9           9
          10          10          11          11          12          12
          13          13          14          14          15          15
          15          15          15          15          15          15
          16          16          16          16          16          16
          16          16          17          17          18          18
          19          19          19          19          19          19
          19          19          20          20          20          20
          20          20          20          20          21          21
          22          22          23          23          24          24
          25          25          26          26          27          27
Primitive exponents                        R   N=         277
  3.04752490e+03  4.57369510e+02  1.03948690e+02  2.92101550e+01  9.28666300e+00
  3.16392700e+00  7.86827240e+00  1.88128850e+00  5.44249300e-01  7.86827240e+00
  1.88128850e+00  5.44249300e-01  1.68714400e-01  1.68714400e-01  8.00000000e-01
  4.38000000e-02  4.38000000e-02  3.04752490e+03  4.57369510e+02  1.03948690e+02
  2.92101550e+01  9.28666300e+00  3.16392700e+00  7.86827240e+00  1.88128850e+00
  5.44249300e-01  7.86827240e+00  1.88128850e+00  5.44249300e-01  1.68714400e-01
  1.68714400e-01  8.00000000e-01  4.38000000e-02  4.38000000e-02  3.04752490e+03
  4.57369510e+02  1.03948690e+02  2.92101550e+01  9.28666300e+00  3.16392700e+00
  7.86827240e+00  1.88128850e+00  5.44249300e-01  7.86827240e+00  1.88128850e+00
  5.44249300e-01  1.68714400e-01  1.68714400e-01  8.00000000e-01  4.38000000e-02
  4.38000000e-02  3.04752490e+03  4.57369510e+02  1.03948690e+02  2.92101550e+01
  9.28666300e+00  3.16392700e+00  7.86827240e+00  1.88128850e+00  5.44249300e-01
  7.86827240e+00  1.88128850e+00  5.44249300e-01  1.68714400e-01  1.68714400e-01
  8.00000000e-01  4.38000000e-02  4.38000000e-02  3.04752490e+03  4.57369510e+02
  1.03948690e+02  2.92101550e+01  9.28666300e+00  3.16392700e+00  7.86827240e+00
  1.88128850e+00  5.44249300e-01  7.86827240e+00  1.88128850e+00  5.44249300e-01
  1.68714400e-01  1.68714400e-01  8.00000000e-01  4.38000000e-02  4.38000000e-02
  3.04752490e+03  4.57369510e+02  1.03948690e+02  2.92101550e+01  9.28666300e+00
  3.16392700e+00  7.86827240e+00  1.88128850e+00  5.44249300e-01  7.86827240e+00
  1.88128850e+00  5.44249300e-01  1.68714400e-01  1.68714400e-01  8.00000000e-01
  4.38000000e-02  4.38000000e-02  4.17351100e+03  6.27457900e+02  1.42902100e+02
  4.02343300e+01  1.28202100e+01  4.39043700e+00  1.16263580e+01  2.71628000e+00
  7.72218000e-01  1.16263580e+01  2.71628000e+00  7.72218000e-01  2.12031300e-01
  2.12031300e-01  8.00000000e-01  6.39000000e-02  6.39000000e-02  3.04752490e+03
  4.57369510e+02  1.03948690e+02  2.92101550e+01  9.28666300e+00  3.16392700e+00
  7.86827240e+00  1.88128850e+00  5.44249300e-01  7.86827240e+00  1.88128850e+00
  5.44249300e-01  1.68714400e-01  1.68714400e-01  8.00000000e-01  4.38000000e-02
  4.38000000e-02  3.04752490e+03  4.57369510e+02  1.03948690e+02  2.92101550e+01
  9.28666300e+00  3.16392700e+00  7.86827240e+00  1.88128850e+00  5.44249300e-01
  7.86827240e+00  1.88128850e+00  5.44249300e-01  1.68714400e-01  1.68714400e-01
  8.00000000e-01  4.38000000e-02  4.38000000e-02  1.87311370e+01  2.82539370e+00
  6.40121700e-01  1.61277800e-01  1.87311370e+01  2.82539370e+00  6.40121700e-01
  1.61277800e-01  1.87311370e+01  2.82539370e+00  6.40121700e-01  1.61277800e-01
  1.87311370e+01  2.82539370e+00  6.40121700e-01  1.61277800e-01  1.87311370e+01
  2.82539370e+00  6.40121700e-01  1.61277800e-01  3.04752490e+03  4.57369510e+02
  1.03948690e+02  2.92101550e+01  9.28666300e+00  3.16392700e+00  7.86827240e+00
  1.88128850e+00  5.44249300e-01  7.86827240e+00  1.88128850e+00  5.44249300e-01
  1.68714400e-01  1.68714400e-01  8.00000000e-01  4.38000000e-02  4.38000000e-02
  3.04752490e+03  4.57369510e+02  1.03948690e+02  2.92101550e+01  9.28666300e+00
  3.16392700e+00  7.86827240e+00  1.88128850e+00  5.44249300e-01  7.86827240e+00
  1.88128850e+00  5.44249300e-01  1.68714400e-01  1.68714400e-01  8.00000000e-01
  4.38000000e-02  4.38000000e-02  1.87311370e+01  2.82539370e+00  6.40121700e-01
  1.61277800e-01  1.87311370e+01  2.82539370e+00  6.40121700e-01  1.61277800e-01
  4.17351100e+03  6.27457900e+02  1.42902100e+02  4.02343300e+01  1.28202100e+01
  4.39043700e+00  1.16263580e+01  2.71628000e+00  7.72218000e-01  1.16263580e+01
  2.71628000e+00  7.72218000e-01  2.12031300e-01  2.12031300e-01  8.00000000e-01
  6.39000000e-02  6.39000000e-02  3.04752490e+03  4.57369510e+02  1.03948690e+02
  2.92101550e+01  9.28666300e+00  3.16392700e+00  7.86827240e+00  1.88128850e+00
  5.44249300e-01  7.86827240e+00  1.88128850e+00  5.44249300e-01  1.68714400e-01
  1.68714400e-01  8.00000000e-01  4.38000000e-02  4.38000000e-02  1.87311370e+01
  2.82539370e+00  6.40121700e-01  1.61277800e-01  1.87311370e+01  2.82539370e+00
  6.40121700e-01  1.61277800e-01  1.87311370e+01  2.82539370e+00  6.40121700e-01
  1.61277800e-01  1.87311370e+01  2.82539370e+00  6.40121700e-01  1.61277800e-01
  1.87311370e+01  2.82539370e+00  6.40121700e-01  1.61277800e-01  1.87311370e+01
  2.82539370e+00  6.40121700e-01  1.61277800e-01  1.87311370e+01  2.82539370e+00
  6.40121700e-01  1.61277800e-01
Contraction coefficients                   R   N=         277
  1.83470016e-03  1.40373012e-02  6.88426061e-02  2.32184421e-01  4.67941342e-01
  3.62312032e-01 -1.19332409e-01 -1.60854212e-01  1.14345648e+00  6.89990956e-02
  3.16423980e-01  7.44308252e-01  1.00000000e+00  1.00000000e+00  1.00000000e+00
  1.00000000e+00  1.00000000e+00  1.83470016e-03  1.40373012e-02  6.88426061e-02
  2.32184421e-01  4.67941342e-01  3.62312032e-01 -1.19332409e-01 -1.60854212e-01
  1.14345648e+00  6.89990956e-02  3.16423980e-01  7.44308252e-01  1.00000000e+00
  1.00000000e+00  1.00000000e+00  1.00000000e+00  1.00000000e+00  1.83470016e-03
  1.40373012e-02  6.88426061e-02  2.32184421e-01  4.67941342e-01  3.62312032e-01
 -1.19332409e-01 -1.60854212e-01  1.14345648e+00  6.89990956e-02  3.16423980e-01
  7.44308252e-01  1.00000000e+00  1.00000000e+00  1.00000000e+00  1.00000000e+00
  1.00000000e+00  1.83470016e-03  1.40373012e-02  6.88426061e-02  2.32184421e-01
  4.67941342e-01  3.62312032e-01 -1.19332409e-01 -1.60854212e-01  1.14345648e+00
  6.89990956e-02  3.16423980e-01  7.44308252e-01  1.00000000e+00  1.00000000e+00
  1.00000000e+00  1.00000000e+00  1.00000000e+00  1.83470016e-03  1.40373012e-02
  6.88426061e-02  2.32184421e-01  4.67941342e-01  3.62312032e-01 -1.19332409e-01
 -1.60854212e-01  1.14345648e+00  6.89990956e-02  3.16423980e-01  7.44308252e-01
  1.00000000e+00  1.00000000e+00  1.00000000e+00  1.00000000e+00  1.00000000e+00
  1.83470016e-03  1.40373012e-02  6.88426061e-02  2.32184421e-01  4.67941342e-01
  3.62312032e-01 -1.19332409e-01 -1.60854212e-01  1.14345648e+00  6.89990956e-02
  3.16423980e-01  7.44308252e-01  1.00000000e+00  1.00000000e+00  1.00000000e+00
  1.00000000e+00  1.00000000e+00  1.83479944e-03  1.39949958e-02  6.85869792e-02
  2.32240930e-01  4.69069858e-01  3.60454891e-01 -1.14961023e-01 -1.69118034e-01
  1.14585223e+00  6.75800232e-02  3.23907111e-01  7.40895255e-01  1.00000000e+00
  1.00000000e+00  1.00000000e+00  1.00000000e+00  1.00000000e+00  1.83470016e-03
  1.40373012e-02  6.88426061e-02  2.32184421e-01  4.67941342e-01  3.62312032e-01
 -1.19332409e-01 -1.60854212e-01  1.14345648e+00  6.89990956e-02  3.16423980e-01
  7.44308252e-01  1.00000000e+00  1.00000000e+00  1.00000000e+00  1.00000000e+00
  1.00000000e+00  1.83470016e-03  1.40373012e-02  6.88426061e-02  2.32184421e-01
  4.67941342e-01  3.62312032e-01 -1.19332409e-01 -1.60854212e-01  1.14345648e+00
  6.89990956e-02  3.16423980e-01  7.44308252e-01  1.00000000e+00  1.00000000e+00
  1.00000000e+00  1.00000000e+00  1.00000000e+00  3.34945995e-02  2.34726947e-01
  8.13757318e-01  1.00000000e+00  3.34945995e-02  2.34726947e-01  8.13757318e-01
  1.00000000e+00  3.34945995e-02  2.34726947e-01  8.13757318e-01  1.00000000e+00
  3.34945995e-02  2.34726947e-01  8.13757318e-01  1.00000000e+00  3.34945995e-02
  2.34726947e-01  8.13757318e-01  1.00000000e+00  1.83470016e-03  1.40373012e-02
  6.88426061e-02  2.32184421e-01  4.67941342e-01  3.62312032e-01 -1.19332409e-01
 -1.60854212e-01  1.14345648e+00  6.89990956e-02  3.16423980e-01  7.44308252e-01
  1.00000000e+00  1.00000000e+00  1.00000000e+00  1.00000000e+00  1.00000000e+00
  1.83470016e-03  1.40373012e-02  6.88426061e-02  2.32184421e-01  4.67941342e-01
  3.62312032e-01 -1.19332409e-01 -1.60854212e-01  1.14345648e+00  6.89990956e-02
  3.16423980e-01  7.44308252e-01  1.00000000e+00  1.00000000e+00  1.00000000e+00
  1.00000000e+00  1.00000000e+00  3.34945995e-02  2.34726947e-01  8.13757318e-01
  1.00000000e+00  3.34945995e-02  2.34726947e-01  8.13757318e-01  1.00000000e+00
  1.83479944e-03  1.39949958e-02  6.85869792e-02  2.32240930e-01  4.69069858e-01
  3.60454891e-01 -1.14961023e-01 -1.69118034e-01  1.14585223e+00  6.75800232e-02
  3.23907111e-01  7.40895255e-01  1.00000000e+00  1.00000000e+00  1.00000000e+00
  1.00000000e+00  1.00000000e+00  1.83470016e-03  1.40373012e-02  6.88426061e-02
  2.32184421e-01  4.67941342e-01  3.62312032e-01 -1.19332409e-01 -1.60854212e-01
  1.14345648e+00  6.89990956e-02  3.16423980e-01  7.44308252e-01  1.00000000e+00
  1.00000000e+00  1.00000000e+00  1.00000000e+00  1.00000000e+00  3.34945995e-02
  2.34726947e-01  8.13757318e-01  1.00000000e+00  3.34945995e-02  2.34726947e-01
  8.13757318e-01  1.00000000e+00  3.34945995e-02  2.34726947e-01  8.13757318e-01
  1.00000000e+00  3.34945995e-02  2.34726947e-01  8.13757318e-01  1.00000000e+00
  3.34945995e-02  2.34726947e-01  8.13757318e-01  1.00000000e+00  3.34945995e-02
  2.34726947e-01  8.13757318e-01  1.00000000e+00  3.34945995e-02  2.34726947e-01
  8.13757318e-01  1.00000000e+00
Coordinates of each shell                  R   N=         396
 -4.73123218e-01 -1.21290741e+00 -9.24299128e-01 -4.73123218e-01 -1.21290741e+00
 -9.24299128e-01 -4.73123218e-01 -1.21290741e+00 -9.24299128e-01 -4.73123218e-01
 -1.21290741e+00 -9.24299128e-01 -4.73123218e-01 -1.21290741e+00 -9.24299128e-01
 -4.73123218e-01 -1.21290741e+00 -9.24299128e-01 -4.73123218e-01 -1.21290741e+00
 -9.24299128e-01 -4.73123218e-01 -1.21290741e+00 -9.24299128e-01  2.69581373e+00
  1.26742355e+00  1.97646280e+00  2.69581373e+00  1.26742355e+00  1.97646280e+00
  2.69581373e+00  1.26742355e+00  1.97646280e+00  2.69581373e+00  1.26742355e+00
  1.97646280e+00  2.69581373e+00  1.26742355e+00  1.97646280e+00  2.69581373e+00
  1.26742355e+00  1.97646280e+00  2.69581373e+00  1.26742355e+00  1.97646280e+00
  2.69581373e+00  1.26742355e+00  1.97646280e+00  1.58953287e+00  4.68778630e-01
 -3.07790229e-01  1.58953287e+00  4.68778630e-01 -3.07790229e-01  1.58953287e+00
  4.68778630e-01 -3.07790229e-01  1.58953287e+00  4.68778630e-01 -3.07790229e-01
  1.58953287e+00  4.68778630e-01 -3.07790229e-01  1.58953287e+00  4.68778630e-01
 -3.07790229e-01  1.58953287e+00  4.68778630e-01 -3.07790229e-01  1.58953287e+00
  4.68778630e-01 -3.07790229e-01  4.73383358e+00  2.92598038e+00  1.90250091e+00
  4.73383358e+00  2.92598038e+00  1.90250091e+00  4.73383358e+00  2.92598038e+00
  1.90250091e+00  4.73383358e+00  2.92598038e+00  1.90250091e+00  4.73383358e+00
  2.92598038e+00  1.90250091e+00  4.73383358e+00  2.92598038e+00  1.90250091e+00
  4.73383358e+00  2.92598038e+00  1.90250091e+00  4.73383358e+00  2.92598038e+00
  1.90250091e+00  5.70177341e+00  3.81487517e+00 -4.20440299e-01  5.70177341e+00
  3.81487517e+00 -4.20440299e-01  5.70177341e+00  3.81487517e+00 -4.20440299e-01
  5.70177341e+00  3.81487517e+00 -4.20440299e-01  5.70177341e+00  3.81487517e+00
 -4.20440299e-01  5.70177341e+00  3.81487517e+00 -4.20440299e-01  5.70177341e+00
  3.81487517e+00 -4.20440299e-01  5.70177341e+00  3.81487517e+00 -4.20440299e-01
 -6.21398831e-01 -1.24993788e+00 -3.51685040e+00 -6.21398831e-01 -1.24993788e+00
 -3.51685040e+00 -6.21398831e-01 -1.24993788e+00 -3.51685040e+00 -6.21398831e-01
 -1.24993788e+00 -3.51685040e+00 -6.21398831e-01 -1.24993788e+00 -3.51685040e+00
 -6.21398831e-01 -1.24993788e+00 -3.51685040e+00 -6.21398831e-01 -1.24993788e+00
 -3.51685040e+00 -6.21398831e-01 -1.24993788e+00 -3.51685040e+00  1.21330539e+00
  3.06420979e-01 -4.55016522e+00  1.21330539e+00  3.06420979e-01 -4.55016522e+00
  1.21330539e+00  3.06420979e-01 -4.55016522e+00  1.21330539e+00  3.06420979e-01
 -4.55016522e+00  1.21330539e+00  3.06420979e-01 -4.55016522e+00  1.21330539e+00
  3.06420979e-01 -4.55016522e+00  1.21330539e+00  3.06420979e-01 -4.55016522e+00
  1.21330539e+00  3.06420979e-01 -4.55016522e+00  2.60480050e+00  1.38407143e+00
 -2.62449172e+00  2.60480050e+00  1.38407143e+00 -2.62449172e+00  2.60480050e+00
  1.38407143e+00 -2.62449172e+00  2.60480050e+00  1.38407143e+00 -2.62449172e+00
  2.60480050e+00  1.38407143e+00 -2.62449172e+00  2.60480050e+00  1.38407143e+00
 -2.62449172e+00  2.60480050e+00  1.38407143e+00 -2.62449172e+00  2.60480050e+00
  1.38407143e+00 -2.62449172e+00  4.65438436e+00  3.05546940e+00 -2.71079084e+00
  4.65438436e+00  3.05546940e+00 -2.71079084e+00  4.65438436e+00  3.05546940e+00
 -2.71079084e+00  4.65438436e+00  3.05546940e+00 -2.71079084e+00  4.65438436e+00
  3.05546940e+00 -2.71079084e+00  4.65438436e+00  3.05546940e+00 -2.71079084e+00
  4.65438436e+00  3.05546940e+00 -2.71079084e+00  4.65438436e+00  3.05546940e+00
 -2.71079084e+00  7.29529291e+00  5.11088189e+00 -4.20954036e-01  7.29529291e+00
  5.11088189e+00 -4.20954036e-01  5.40700496e+00  3.73594199e+00 -4.49816542e+00
  5.40700496e+00  3.73594199e+00 -4.49816542e+00  1.97313116e+00  5.92214053e-01
  3.77780500e+00  1.97313116e+00  5.92214053e-01  3.77780500e+00  1.50624456e+00
  5.76048344e-01 -6.41404885e+00  1.50624456e+00  5.76048344e-01 -6.41404885e+00
 -1.90150765e+00 -2.28421254e+00 -4.73178968e+00 -1.90150765e+00 -2.28421254e+00
 -4.73178968e+00 -2.14698232e+00 -2.59887184e+00  9.04898646e-01 -2.14698232e+00
 -2.59887184e+00  9.04898646e-01 -2.14698232e+00 -2.59887184e+00  9.04898646e-01
 -2.14698232e+00 -2.59887184e+00  9.04898646e-01 -2.14698232e+00 -2.59887184e+00
  9.04898646e-01 -2.14698232e+00 -2.59887184e+00  9.04898646e-01 -2.14698232e+00
 -2.59887184e+00  9.04898646e-01 -2.14698232e+00 -2.59887184e+00  9.04898646e-01
 -4.15627989e+00 -8.81421291e-01  2.13555077e+00 -4.15627989e+00 -8.81421291e-01
  2.13555077e+00 -4.15627989e+00 -8.81421291e-01  2.13555077e+00 -4.15627989e+00
 -8.81421291e-01  2.13555077e+00 -4.15627989e+00 -8.81421291e-01  2.13555077e+00
 -4.15627989e+00 -8.81421291e-01  2.13555077e+00 -4.15627989e+00 -8.81421291e-01
  2.13555077e+00 -4.15627989e+00 -8.81421291e-01  2.13555077e+00 -1.01598553e+00
 -3.44588222e+00  2.42470201e+00 -1.01598553e+00 -3.44588222e+00  2.42470201e+00
 -3.08045007e+00 -4.16801099e+00 -7.77542929e-02 -3.08045007e+00 -4.16801099e+00
 -7.77542929e-02 -5.59725482e+00 -2.19135614e+00  4.10171862e+00 -5.59725482e+00
 -2.19135614e+00  4.10171862e+00 -5.59725482e+00 -2.19135614e+00  4.10171862e+00
 -5.59725482e+00 -2.19135614e+00  4.10171862e+00 -5.59725482e+00 -2.19135614e+00
  4.10171862e+00 -5.59725482e+00 -2.19135614e+00  4.10171862e+00 -5.59725482e+00
 -2.19135614e+00  4.10171862e+00 -5.59725482e+00 -2.19135614e+00  4.10171862e+00
 -7.51044935e+00 -3.94130742e+00  3.15357708e+00 -7.51044935e+00 -3.94130742e+00
  3.15357708e+00 -7.51044935e+00 -3.94130742e+00  3.15357708e+00 -7.51044935e+00
 -3.94130742e+00  3.15357708e+00 -7.51044935e+00 -3.94130742e+00  3.15357708e+00
 -7.51044935e+00 -3.94130742e+00  3.15357708e+00 -7.51044935e+00 -3.94130742e+00
  3.15357708e+00 -7.51044935e+00 -3.94130742e+00  3.15357708e+00 -5.38928987e+00
 -1.07607893e-01  6.31160268e-01 -5.38928987e+00 -1.07607893e-01  6.31160268e-01
 -3.20494573e+00  7.29797749e-01  3.02338432e+00 -3.20494573e+00  7.29797749e-01
  3.02338432e+00  5.60109545e+00  3.55092521e+00  3.65649895e+00  5.60109545e+00
  3.55092521e+00  3.65649895e+00 -6.43493082e+00 -8.93090483e-01  5.24392294e+00
 -6.43493082e+00 -8.93090483e-01  5.24392294e+00 -6.60405049e+00 -5.57544338e+00
  2.26352320e+00 -6.60405049e+00 -5.57544338e+00  2.26352320e+00 -8.80819741e+00
 -3.08703892e+00  1.75200269e+00 -8.80819741e+00 -3.08703892e+00  1.75200269e+00
 -8.63524199e+00 -4.64789654e+00  4.74043653e+00 -8.63524199e+00 -4.64789654e+00
  4.74043653e+00
Total Energy                               R     -5.371178472070819e+02
Alpha Orbital Energies                     R   N=         275
 -1.43839373e+01 -1.43244475e+01 -1.02220622e+01 -1.02208790e+01 -1.02076836e+01
 -1.02043554e+01 -1.01930638e+01 -1.01879821e+01 -1.01878773e+01 -1.01859390e+01
 -1.01856586e+01 -1.01843984e+01 -1.01830823e+01 -9.81094960e-01 -9.01504478e-01
 -8.39689891e-01 -8.01025210e-01 -7.44285440e-01 -7.35412602e-01 -7.14219265e-01
 -6.73458005e-01 -6.24592481e-01 -6.04249573e-01 -5.92915647e-01 -5.55866102e-01
 -5.38165995e-01 -4.94075495e-01 -4.87509139e-01 -4.74424411e-01 -4.54473814e-01
 -4.41933609e-01 -4.34143837e-01 -4.30703388e-01 -4.20038959e-01 -4.12932137e-01
 -3.92959156e-01 -3.85633530e-01 -3.69564966e-01 -3.62346561e-01 -3.58734500e-01
 -3.41175844e-01 -3.34639021e-01 -3.26852215e-01 -2.73932446e-01 -2.26022719e-01
 -2.24293786e-01 -2.04365265e-01 -1.93697448e-02 -3.56081251e-03  5.62587981e-03
  1.44266556e-02  1.69221331e-02  1.93549456e-02  2.76194063e-02  3.30568066e-02
  4.03986639e-02  4.39633846e-02  4.97076373e-02  5.25819789e-02  6.14644427e-02
  6.74017923e-02  7.05919940e-02  7.41383007e-02  8.10932135e-02  8.42849326e-02
  9.53492771e-02  9.87461520e-02  1.04628759e-01  1.08005362e-01  1.12603573e-01
  1.22145339e-01  1.32198262e-01  1.35249684e-01  1.40601433e-01  1.48197599e-01
  1.49573569e-01  1.56945222e-01  1.58680371e-01  1.64800450e-01  1.68085256e-01
  1.72811892e-01  1.77541925e-01  1.82587684e-01  1.88677210e-01  1.92206511e-01
  1.94345177e-01  1.98150376e-01  2.05717073e-01  2.07171051e-01  2.11113931e-01
  2.15892217e-01  2.18463940e-01  2.24315497e-01  2.26984378e-01  2.30001800e-01
  2.33410560e-01  2.41707699e-01  2.46174714e-01  2.52191598e-01  2.54688953e-01
  2.57926568e-01  2.61365911e-01  2.64077946e-01  2.72937618e-01  2.77516203e-01
  2.77810685e-01  2.90106769e-01  2.92453026e-01  2.98367902e-01  3.03803839e-01
  3.06534466e-01  3.08348842e-01  3.16784245e-01  3.22205578e-01  3.30654501e-01
  3.39301313e-01  3.46164043e-01  3.52350614e-01  3.65560374e-01  3.72608299e-01
  3.79772733e-01  3.82209641e-01  3.96725732e-01  4.05723745e-01  4.20329567e-01
  4.48683425e-01  4.56976508e-01  4.76493185e-01  5.24957867e-01  5.84806191e-01
  6.21316395e-01  6.39188291e-01  6.67843509e-01  6.75317233e-01  6.79029525e-01
  6.92840227e-01  7.00004500e-01  7.14747642e-01  7.17510441e-01  7.32633237e-01
  7.35326551e-01  7.35813567e-01  7.45803004e-01  7.58248517e-01  7.72218312e-01
  7.72964975e-01  7.87178152e-01  7.91590332e-01  8.07251631e-01  8.20360611e-01
  8.25601374e-01  8.56756132e-01  8.74641349e-01  8.93936846e-01  8.99587610e-01
  9.03110995e-01  9.15283298e-01  9.32806606e-01  9.42916245e-01  9.47924616e-01
  9.59655860e-01  9.67897560e-01  9.76178246e-01  9.86926846e-01  9.96826937e-01
  1.01635502e+00  1.02793901e+00  1.04586881e+00  1.05712243e+00  1.06721665e+00
  1.07795137e+00  1.08431894e+00  1.11112220e+00  1.11621862e+00  1.13210600e+00
  1.13670826e+00  1.14399596e+00  1.15600464e+00  1.16557888e+00  1.18175538e+00
  1.21653201e+00  1.23449622e+00  1.24971074e+00  1.25486013e+00  1.26512446e+00
  1.28485627e+00  1.31220864e+00  1.33241719e+00  1.34299349e+00  1.37046987e+00
  1.38469484e+00  1.40999128e+00  1.42292959e+00  1.43086385e+00  1.43692062e+00
  1.47161905e+00  1.47448881e+00  1.50034515e+00  1.50652084e+00  1.52496382e+00
  1.53837119e+00  1.56423792e+00  1.62873179e+00  1.64865770e+00  1.68199534e+00
  1.75190687e+00  1.79598631e+00  1.80163771e+00  1.83179925e+00  1.85977354e+00
  1.88108834e+00  1.90005362e+00  1.92119156e+00  1.93245976e+00  1.94975465e+00
  1.96690433e+00  1.99510822e+00  2.00896431e+00  2.02919199e+00  2.03408054e+00
  2.04766607e+00  2.07083222e+00  2.08054284e+00  2.10518811e+00  2.12096810e+00
  2.14929648e+00  2.17305334e+00  2.18333696e+00  2.20924629e+00  2.21504779e+00
  2.24349620e+00  2.25875852e+00  2.27703762e+00  2.29193949e+00  2.31153740e+00
  2.33833346e+00  2.36269461e+00  2.39062573e+00  2.40499990e+00  2.42883430e+00
  2.44751201e+00  2.48754311e+00  2.49484548e+00  2.55635148e+00  2.57174231e+00
  2.59942471e+00  2.66493506e+00  2.66920903e+00  2.67484792e+00  2.68987991e+00
  2.73069897e+00  2.75582815e+00  2.76382225e+00  2.83859608e+00  2.85049584e+00
  2.87194331e+00  2.91150437e+00  2.98210393e+00  3.00930727e+00  3.16315518e+00
  3.25425555e+00  3.43999087e+00  4.08260112e+00  4.19108751e+00  4.25933890e+00
  4.27967573e+00  4.30265723e+00  4.33550167e+00  4.35418660e+00  4.39785233e+00
  4.42897421e+00  4.49647589e+00  4.57953620e+00  4.60338824e+00  4.81202019e+00
Alpha MO coefficients                      R   N=       75625
 -4.10851576e-07  6.13420244e-05  9.00087269e-06  6.68140060e-06  4.87846870e-05
 -3.45817270e-04 -1.44593341e-04 -1.44155137e-04  9.32927713e-04 -1.83071621e-05
 -1.72746462e-05 -9.55322723e-05 -6.80338186e-06  2.80797006e-05  2.69909133e-05
  1.11439011e-04  3.13108854e-03  3.06187765e-03 -4.67709332e-03  2.13694228e-06
  1.22087967e-05 -1.06900887e-05 -8.95026660e-06  1.90563355e-05 -8.03391517e-04
  4.16883845e-05  1.63838985e-05  3.35422725e-04  6.10772632e-06  2.56442049e-06
 -1.16234967e-06  6.43890133e-06  9.47154958e-06  7.57245864e-06  9.04043211e-04
  3.05294598e-04  2.87504389e-04 -2.31437898e-04 -1.53265992e-05 -1.90205266e-05