Generated by Psi4
     FORCE                           RHF                       TESTBAS
Number of atoms                            I               24
Charge                                     I                0
Multiplicity                               I                1
Number of electrons                        I               80
Number of alpha electrons                  I               40
Number of beta electrons                   I               40
Number of basis functions                  I              235
Number of independent functions            I              235
Atomic numbers                             I   N=          24
           6           6           6           1           1           7
           6           6           6           6           6           1
           1           1           1           6           1           1
           1           6           1           1           1           1
Nuclear charges                            R   N=          24
  6.00000000e+00  6.00000000e+00  6.00000000e+00  1.00000000e+00  1.00000000e+00
  7.00000000e+00  6.00000000e+00  6.00000000e+00  6.00000000e+00  6.00000000e+00
  6.00000000e+00  1.00000000e+00  1.00000000e+00  1.00000000e+00  1.00000000e+00
  6.00000000e+00  1.00000000e+00  1.00000000e+00  1.00000000e+00  6.00000000e+00
  1.00000000e+00  1.00000000e+00  1.00000000e+00  1.00000000e+00
Current cartesian coordinates              R   N=          72
  2.08801945e-01 -8.08081233e-01 -1.47064612e+00 -1.92966295e+00 -1.69397326e+00
  2.10950652e-01 -2.11082542e+00  4.28311175e-01  2.22844231e+00 -1.44354654e+00
 -3.48506791e+00  1.14900274e+00 -3.70284899e+00 -1.99055770e+00 -8.18310706e-01
 -3.01521206e+00 -4.65746173e-01  4.67816449e+00  1.65732481e+00  1.03347499e+00
 -2.26784557e-01  3.75454452e+00  2.10743774e+00 -1.40735069e+00  4.39836303e+00
  1.32601095e+00 -3.85319523e+00  2.95432402e+00 -5.09375945e-01 -5.09470558e+00
  8.48685526e-01 -1.58672791e+00 -3.90597849e+00 -2.73461119e-01 -3.00741660e+00
 -4.88127082e+00  4.87762240e+00  3.54066840e+00 -4.51640356e-01  6.02272606e+00
  2.15815414e+00 -4.79690716e+00  3.46372909e+00 -1.09465796e+00 -6.99723314e+00
  5.99521311e-01  1.52253861e+00  2.38465125e+00  6.22952683e-01  3.52517697e+00
  2.92105286e+00  1.67709542e+00  4.77028948e-01  3.82435814e+00 -3.36221560e+00
  1.92039946e+00  1.45510609e+00 -5.68608534e+00 -1.17224977e+00  4.70387022e+00
 -2.70729768e+00  8.99439114e-01  5.99973166e+00 -5.97312125e+00 -2.85957771e+00
  3.53917404e+00 -6.96061066e+00  3.23714053e-01  3.98862279e+00 -6.24907040e+00
 -1.64413112e+00  6.63805161e+00
Integer atomic weights                     I   N=          24
          12          12          12           1           1          14
          12          12          12          12          12           1
           1           1           1          12           1           1
           1          12           1           1           1           1
Real atomic weights                        R   N=          24
  1.20000000e+01  1.20000000e+01  1.20000000e+01  1.00782503e+00  1.00782503e+00
  1.40030740e+01  1.20000000e+01  1.20000000e+01  1.20000000e+01  1.20000000e+01
  1.20000000e+01  1.00782503e+00  1.00782503e+00  1.00782503e+00  1.00782503e+00
  1.20000000e+01  1.00782503e+00  1.00782503e+00  1.00782503e+00  1.20000000e+01
  1.00782503e+00  1.00782503e+00  1.00782503e+00  1.00782503e+00
Number of primitive shells                 I              239
Number of contracted shells                I              114
Pure/Cartesian d shells                    I                1
Pure/Cartesian f shells                    I                1
Highest angular momentum                   I                2
Largest degree of contraction              I                6
Shell types                                I   N=         114
           0           0           1           0           1           2
           0           1           0           0           1           0
           1           2           0           1           0           0
           1           0           1           2           0           1
           0           0           0           0           0           0
           1           0           1           2           0           1
           0           0           1           0           1           2
           0           1           0           0           1           0
           1           2           0           1           0           0
           1           0           1           2           0           1
           0           0           1           0           1           2
           0           1           0           0           1           0
           1           2           0           1           0           0
           0           0           0           0           0           0
           0           0           1           0           1           2
           0           1           0           0           0           0
           0           0           0           0           1           0
           1           2           0           1           0           0
           0           0           0           0           0           0
Number of primitives per shell             I   N=         114
           6           3           3           1           1           1
           1           1           6           3           3           1
           1           1           1           1           6           3
           3           1           1           1           1           1
           3           1           3           1           6           3
           3           1           1           1           1           1
           6           3           3           1           1           1
           1           1           6           3           3           1
           1           1           1           1           6           3
           3           1           1           1           1           1
           6           3           3           1           1           1
           1           1           6           3           3           1
           1           1           1           1           3           1
           3           1           3           1           3           1
           6           3           3           1           1           1
           1           1           3           1           3           1
           3           1           6           3           3           1
           1           1           1           1           3           1
           3           1           3           1           3           1
Shell to atom map                          I   N=         114
           1           1           1           1           1           1
           1           1           2           2           2           2
           2           2           2           2           3           3
           3           3           3           3           3           3
           4           4           5           5           6           6
           6           6           6           6           6           6
           7           7           7           7           7           7
           7           7           8           8           8           8
           8           8           8           8           9           9
           9           9           9           9           9           9
          10          10          10          10          10          10
          10          10          11          11          11          11
          11          11          11          11          12          12
          13          13          14          14          15          15
          16          16          16          16          16          16
          16          16          17          17          18          18
          19          19          20          20          20          20
          20          20          20          20          21          21
          22          22          23          23          24          24
Primitive exponents                        R   N=         239
  3.04752490e+03  4.57369510e+02  1.03948690e+02  2.92101550e+01  9.28666300e+00
  3.16392700e+00  7.86827240e+00  1.88128850e+00  5.44249300e-01  7.86827240e+00
  1.88128850e+00  5.44249300e-01  1.68714400e-01  1.68714400e-01  8.00000000e-01
  4.38000000e-02  4.38000000e-02  3.04752490e+03  4.57369510e+02  1.03948690e+02
  2.92101550e+01  9.28666300e+00  3.16392700e+00  7.86827240e+00  1.88128850e+00
  5.44249300e-01  7.86827240e+00  1.88128850e+00  5.44249300e-01  1.68714400e-01
  1.68714400e-01  8.00000000e-01  4.38000000e-02  4.38000000e-02  3.04752490e+03
  4.57369510e+02  1.03948690e+02  2.92101550e+01  9.28666300e+00  3.16392700e+00
  7.86827240e+00  1.88128850e+00  5.44249300e-01  7.86827240e+00  1.88128850e+00
  5.44249300e-01  1.68714400e-01  1.68714400e-01  8.00000000e-01  4.38000000e-02
  4.38000000e-02  1.87311370e+01  2.82539370e+00  6.40121700e-01  1.61277800e-01
  1.87311370e+01  2.82539370e+00  6.40121700e-01  1.61277800e-01  4.17351100e+03
  6.27457900e+02  1.42902100e+02  4.02343300e+01  1.28202100e+01  4.39043700e+00
  1.16263580e+01  2.71628000e+00  7.72218000e-01  1.16263580e+01  2.71628000e+00
  7.72218000e-01  2.12031300e-01  2.12031300e-01  8.00000000e-01  6.39000000e-02
  6.39000000e-02  3.04752490e+03  4.57369510e+02  1.03948690e+02  2.92101550e+01
  9.28666300e+00  3.16392700e+00  7.86827240e+00  1.88128850e+00  5.44249300e-01
  7.86827240e+00  1.88128850e+00  5.44249300e-01  1.68714400e-01  1.68714400e-01
  8.00000000e-01  4.38000000e-02  4.38000000e-02  3.04752490e+03  4.57369510e+02
  1.03948690e+02  2.92101550e+01  9.28666300e+00  3.16392700e+00  7.86827240e+00
  1.88128850e+00  5.44249300e-01  7.86827240e+00  1.88128850e+00  5.44249300e-01
  1.68714400e-01  1.68714400e-01  8.00000000e-01  4.38000000e-02  4.38000000e-02
  3.04752490e+03  4.57369510e+02  1.03948690e+02  2.92101550e+01  9.28666300e+00
  3.16392700e+00  7.86827240e+00  1.88128850e+00  5.44249300e-01  7.86827240e+00
  1.88128850e+00  5.44249300e-01  1.68714400e-01  1.68714400e-01  8.00000000e-01
  4.38000000e-02  4.38000000e-02  3.04752490e+03  4.57369510e+02  1.03948690e+02
  2.92101550e+01  9.28666300e+00  3.16392700e+00  7.86827240e+00  1.88128850e+00
  5.44249300e-01  7.86827240e+00  1.88128850e+00  5.44249300e-01  1.68714400e-01
  1.68714400e-01  8.00000000e-01  4.38000000e-02  4.38000000e-02  3.04752490e+03
  4.57369510e+02  1.03948690e+02  2.92101550e+01  9.28666300e+00  3.16392700e+00
  7.86827240e+00  1.88128850e+00  5.44249300e-01  7.86827240e+00  1.88128850e+00
  5.44249300e-01  1.68714400e-01  1.68714400e-01  8.00000000e-01  4.38000000e-02
  4.38000000e-02  1.87311370e+01  2.82539370e+00  6.40121700e-01  1.61277800e-01
  1.87311370e+01  2.82539370e+00  6.40121700e-01  1.61277800e-01  1.87311370e+01
  2.82539370e+00  6.40121700e-01  1.61277800e-01  1.87311370e+01  2.82539370e+00
  6.40121700e-01  1.61277800e-01  3.04752490e+03  4.57369510e+02  1.03948690e+02
  2.92101550e+01  9.28666300e+00  3.16392700e+00  7.86827240e+00  1.88128850e+00
  5.44249300e-01  7.86827240e+00  1.88128850e+00  5.44249300e-01  1.68714400e-01
  1.68714400e-01  8.00000000e-01  4.38000000e-02  4.38000000e-02  1.87311370e+01
  2.82539370e+00  6.40121700e-01  1.61277800e-01  1.87311370e+01  2.82539370e+00
  6.40121700e-01  1.61277800e-01  1.87311370e+01  2.82539370e+00  6.40121700e-01
  1.61277800e-01  3.04752490e+03  4.57369510e+02  1.03948690e+02  2.92101550e+01
  9.28666300e+00  3.16392700e+00  7.86827240e+00  1.88128850e+00  5.44249300e-01
  7.86827240e+00  1.88128850e+00  5.44249300e-01  1.68714400e-01  1.68714400e-01
  8.00000000e-01  4.38000000e-02  4.38000000e-02  1.87311370e+01  2.82539370e+00
  6.40121700e-01  1.61277800e-01  1.87311370e+01  2.82539370e+00  6.40121700e-01
  1.61277800e-01  1.87311370e+01  2.82539370e+00  6.40121700e-01  1.61277800e-01
  1.87311370e+01  2.82539370e+00  6.40121700e-01  1.61277800e-01
Contraction coefficients                   R   N=         239
  1.83470016e-03  1.40373012e-02  6.88426061e-02  2.32184421e-01  4.67941342e-01
  3.62312032e-01 -1.19332409e-01 -1.60854212e-01  1.14345648e+00  6.89990956e-02
  3.16423980e-01  7.44308252e-01  1.00000000e+00  1.00000000e+00  1.00000000e+00
  1.00000000e+00  1.00000000e+00  1.83470016e-03  1.40373012e-02  6.88426061e-02
  2.32184421e-01  4.67941342e-01  3.62312032e-01 -1.19332409e-01 -1.60854212e-01
  1.14345648e+00  6.89990956e-02  3.16423980e-01  7.44308252e-01  1.00000000e+00
  1.00000000e+00  1.00000000e+00  1.00000000e+00  1.00000000e+00  1.83470016e-03
  1.40373012e-02  6.88426061e-02  2.32184421e-01  4.67941342e-01  3.62312032e-01
 -1.19332409e-01 -1.60854212e-01  1.14345648e+00  6.89990956e-02  3.16423980e-01
  7.44308252e-01  1.00000000e+00  1.00000000e+00  1.00000000e+00  1.00000000e+00
  1.00000000e+00  3.34945995e-02  2.34726947e-01  8.13757318e-01  1.00000000e+00
  3.34945995e-02  2.34726947e-01  8.13757318e-01  1.00000000e+00  1.83479944e-03
  1.39949958e-02  6.85869792e-02  2.32240930e-01  4.69069858e-01  3.60454891e-01
 -1.14961023e-01 -1.69118034e-01  1.14585223e+00  6.75800232e-02  3.23907111e-01
  7.40895255e-01  1.00000000e+00  1.00000000e+00  1.00000000e+00  1.00000000e+00
  1.00000000e+00  1.83470016e-03  1.40373012e-02  6.88426061e-02  2.32184421e-01
  4.67941342e-01  3.62312032e-01 -1.19332409e-01 -1.60854212e-01  1.14345648e+00
  6.89990956e-02  3.16423980e-01  7.44308252e-01  1.00000000e+00  1.00000000e+00
  1.00000000e+00  1.00000000e+00  1.00000000e+00  1.83470016e-03  1.40373012e-02
  6.88426061e-02  2.32184421e-01  4.67941342e-01  3.62312032e-01 -1.19332409e-01
 -1.60854212e-01  1.14345648e+00  6.89990956e-02  3.16423980e-01  7.44308252e-01
  1.00000000e+00  1.00000000e+00  1.00000000e+00  1.00000000e+00  1.00000000e+00
  1.83470016e-03  1.40373012e-02  6.88426061e-02  2.32184421e-01  4.67941342e-01
  3.62312032e-01 -1.19332409e-01 -1.60854212e-01  1.14345648e+00  6.89990956e-02
  3.16423980e-01  7.44308252e-01  1.00000000e+00  1.00000000e+00  1.00000000e+00
  1.00000000e+00  1.00000000e+00  1.83470016e-03  1.40373012e-02  6.88426061e-02
  2.32184421e-01  4.67941342e-01  3.62312032e-01 -1.19332409e-01 -1.60854212e-01
  1.14345648e+00  6.89990956e-02  3.16423980e-01  7.44308252e-01  1.00000000e+00
  1.00000000e+00  1.00000000e+00  1.00000000e+00  1.00000000e+00  1.83470016e-03
  1.40373012e-02  6.88426061e-02  2.32184421e-01  4.67941342e-01  3.62312032e-01
 -1.19332409e-01 -1.60854212e-01  1.14345648e+00  6.89990956e-02  3.16423980e-01
  7.44308252e-01  1.00000000e+00  1.00000000e+00  1.00000000e+00  1.00000000e+00
  1.00000000e+00  3.34945995e-02  2.34726947e-01  8.13757318e-01  1.00000000e+00
  3.34945995e-02  2.34726947e-01  8.13757318e-01  1.00000000e+00  3.34945995e-02
  2.34726947e-01  8.13757318e-01  1.00000000e+00  3.34945995e-02  2.34726947e-01
  8.13757318e-01  1.00000000e+00  1.83470016e-03  1.40373012e-02  6.88426061e-02
  2.32184421e-01  4.67941342e-01  3.62312032e-01 -1.19332409e-01 -1.60854212e-01
  1.14345648e+00  6.89990956e-02  3.16423980e-01  7.44308252e-01  1.00000000e+00
  1.00000000e+00  1.00000000e+00  1.00000000e+00  1.00000000e+00  3.34945995e-02
  2.34726947e-01  8.13757318e-01  1.00000000e+00  3.34945995e-02  2.34726947e-01
  8.13757318e-01  1.00000000e+00  3.34945995e-02  2.34726947e-01  8.13757318e-01
  1.00000000e+00  1.83470016e-03  1.40373012e-02  6.88426061e-02  2.32184421e-01
  4.67941342e-01  3.62312032e-01 -1.19332409e-01 -1.60854212e-01  1.14345648e+00
  6.89990956e-02  3.16423980e-01  7.44308252e-01  1.00000000e+00  1.00000000e+00
  1.00000000e+00  1.00000000e+00  1.00000000e+00  3.34945995e-02  2.34726947e-01
  8.13757318e-01  1.00000000e+00  3.34945995e-02  2.34726947e-01  8.13757318e-01
  1.00000000e+00  3.34945995e-02  2.34726947e-01  8.13757318e-01  1.00000000e+00
  3.34945995e-02  2.34726947e-01  8.13757318e-01  1.00000000e+00
Coordinates of each shell                  R   N=         342
  2.08801945e-01 -8.08081233e-01 -1.47064612e+00  2.08801945e-01 -8.08081233e-01
 -1.47064612e+00  2.08801945e-01 -8.08081233e-01 -1.47064612e+00  2.08801945e-01
 -8.08081233e-01 -1.47064612e+00  2.08801945e-01 -8.08081233e-01 -1.47064612e+00
  2.08801945e-01 -8.08081233e-01 -1.47064612e+00  2.08801945e-01 -8.08081233e-01
 -1.47064612e+00  2.08801945e-01 -8.08081233e-01 -1.47064612e+00 -1.92966295e+00
 -1.69397326e+00  2.10950652e-01 -1.92966295e+00 -1.69397326e+00  2.10950652e-01
 -1.92966295e+00 -1.69397326e+00  2.10950652e-01 -1.92966295e+00 -1.69397326e+00
  2.10950652e-01 -1.92966295e+00 -1.69397326e+00  2.10950652e-01 -1.92966295e+00
 -1.69397326e+00  2.10950652e-01 -1.92966295e+00 -1.69397326e+00  2.10950652e-01
 -1.92966295e+00 -1.69397326e+00  2.10950652e-01 -2.11082542e+00  4.28311175e-01
  2.22844231e+00 -2.11082542e+00  4.28311175e-01  2.22844231e+00 -2.11082542e+00
  4.28311175e-01  2.22844231e+00 -2.11082542e+00  4.28311175e-01  2.22844231e+00
 -2.11082542e+00  4.28311175e-01  2.22844231e+00 -2.11082542e+00  4.28311175e-01
  2.22844231e+00 -2.11082542e+00  4.28311175e-01  2.22844231e+00 -2.11082542e+00
  4.28311175e-01  2.22844231e+00 -1.44354654e+00 -3.48506791e+00  1.14900274e+00
 -1.44354654e+00 -3.48506791e+00  1.14900274e+00 -3.70284899e+00 -1.99055770e+00
 -8.18310706e-01 -3.70284899e+00 -1.99055770e+00 -8.18310706e-01 -3.01521206e+00
 -4.65746173e-01  4.67816449e+00 -3.01521206e+00 -4.65746173e-01  4.67816449e+00
 -3.01521206e+00 -4.65746173e-01  4.67816449e+00 -3.01521206e+00 -4.65746173e-01
  4.67816449e+00 -3.01521206e+00 -4.65746173e-01  4.67816449e+00 -3.01521206e+00
 -4.65746173e-01  4.67816449e+00 -3.01521206e+00 -4.65746173e-01  4.67816449e+00
 -3.01521206e+00 -4.65746173e-01  4.67816449e+00  1.65732481e+00  1.03347499e+00
 -2.26784557e-01  1.65732481e+00  1.03347499e+00 -2.26784557e-01  1.65732481e+00
  1.03347499e+00 -2.26784557e-01  1.65732481e+00  1.03347499e+00 -2.26784557e-01
  1.65732481e+00  1.03347499e+00 -2.26784557e-01  1.65732481e+00  1.03347499e+00
 -2.26784557e-01  1.65732481e+00  1.03347499e+00 -2.26784557e-01  1.65732481e+00
  1.03347499e+00 -2.26784557e-01  3.75454452e+00  2.10743774e+00 -1.40735069e+00
  3.75454452e+00  2.10743774e+00 -1.40735069e+00  3.75454452e+00  2.10743774e+00
 -1.40735069e+00  3.75454452e+00  2.10743774e+00 -1.40735069e+00  3.75454452e+00
  2.10743774e+00 -1.40735069e+00  3.75454452e+00  2.10743774e+00 -1.40735069e+00
  3.75454452e+00  2.10743774e+00 -1.40735069e+00  3.75454452e+00  2.10743774e+00
 -1.40735069e+00  4.39836303e+00  1.32601095e+00 -3.85319523e+00  4.39836303e+00
  1.32601095e+00 -3.85319523e+00  4.39836303e+00  1.32601095e+00 -3.85319523e+00
  4.39836303e+00  1.32601095e+00 -3.85319523e+00  4.39836303e+00  1.32601095e+00
 -3.85319523e+00  4.39836303e+00  1.32601095e+00 -3.85319523e+00  4.39836303e+00
  1.32601095e+00 -3.85319523e+00  4.39836303e+00  1.32601095e+00 -3.85319523e+00
  2.95432402e+00 -5.09375945e-01 -5.09470558e+00  2.95432402e+00 -5.09375945e-01
 -5.09470558e+00  2.95432402e+00 -5.09375945e-01 -5.09470558e+00  2.95432402e+00
 -5.09375945e-01 -5.09470558e+00  2.95432402e+00 -5.09375945e-01 -5.09470558e+00
  2.95432402e+00 -5.09375945e-01 -5.09470558e+00  2.95432402e+00 -5.09375945e-01
 -5.09470558e+00  2.95432402e+00 -5.09375945e-01 -5.09470558e+00  8.48685526e-01
 -1.58672791e+00 -3.90597849e+00  8.48685526e-01 -1.58672791e+00 -3.90597849e+00
  8.48685526e-01 -1.58672791e+00 -3.90597849e+00  8.48685526e-01 -1.58672791e+00
 -3.90597849e+00  8.48685526e-01 -1.58672791e+00 -3.90597849e+00  8.48685526e-01
 -1.58672791e+00 -3.90597849e+00  8.48685526e-01 -1.58672791e+00 -3.90597849e+00
  8.48685526e-01 -1.58672791e+00 -3.90597849e+00 -2.73461119e-01 -3.00741660e+00
 -4.88127082e+00 -2.73461119e-01 -3.00741660e+00 -4.88127082e+00  4.87762240e+00
  3.54066840e+00 -4.51640356e-01  4.87762240e+00  3.54066840e+00 -4.51640356e-01
  6.02272606e+00  2.15815414e+00 -4.79690716e+00  6.02272606e+00  2.15815414e+00
 -4.79690716e+00  3.46372909e+00 -1.09465796e+00 -6.99723314e+00  3.46372909e+00
 -1.09465796e+00 -6.99723314e+00  5.99521311e-01  1.52253861e+00  2.38465125e+00
  5.99521311e-01  1.52253861e+00  2.38465125e+00  5.99521311e-01  1.52253861e+00
  2.38465125e+00  5.99521311e-01  1.52253861e+00  2.38465125e+00  5.99521311e-01
  1.52253861e+00  2.38465125e+00  5.99521311e-01  1.52253861e+00  2.38465125e+00
  5.99521311e-01  1.52253861e+00  2.38465125e+00  5.99521311e-01  1.52253861e+00
  2.38465125e+00  6.22952683e-01  3.52517697e+00  2.92105286e+00  6.22952683e-01
  3.52517697e+00  2.92105286e+00  1.67709542e+00  4.77028948e-01  3.82435814e+00
  1.67709542e+00  4.77028948e-01  3.82435814e+00 -3.36221560e+00  1.92039946e+00
  1.45510609e+00 -3.36221560e+00  1.92039946e+00  1.45510609e+00 -5.68608534e+00
 -1.17224977e+00  4.70387022e+00 -5.68608534e+00 -1.17224977e+00  4.70387022e+00
 -5.68608534e+00 -1.17224977e+00  4.70387022e+00 -5.68608534e+00 -1.17224977e+00
  4.70387022e+00 -5.68608534e+00 -1.17224977e+00  4.70387022e+00 -5.68608534e+00
 -1.17224977e+00  4.70387022e+00 -5.68608534e+00 -1.17224977e+00  4.70387022e+00
 -5.68608534e+00 -1.17224977e+00  4.70387022e+00 -2.70729768e+00  8.99439114e-01
  5.99973166e+00 -2.70729768e+00  8.99439114e-01  5.99973166e+00 -5.97312125e+00
 -2.85957771e+00  3.53917404e+00 -5.97312125e+00 -2.85957771e+00  3.53917404e+00
 -6.96061066e+00  3.23714053e-01  3.98862279e+00 -6.96061066e+00  3.23714053e-01
  3.98862279e+00 -6.24907040e+00 -1.64413112e+00  6.63805161e+00 -6.24907040e+00
 -1.64413112e+00  6.63805161e+00
Total Energy                               R     -4.436560372575103e+02
Alpha Orbital Energies                     R   N=         235
 -1.43293195e+01 -1.02206461e+01 -1.02080217e+01 -1.01938631e+01 -1.01931959e+01
 -1.01921964e+01 -1.01918057e+01 -1.01914538e+01 -1.01911820e+01 -1.01909878e+01
 -1.01878874e+01 -9.13569761e-01 -8.65234537e-01 -8.03009404e-01 -7.56440497e-01
 -7.15813594e-01 -6.96347335e-01 -6.62689808e-01 -6.01045780e-01 -5.79099137e-01
 -5.71866468e-01 -5.08308240e-01 -4.94238457e-01 -4.80480699e-01 -4.58356959e-01
 -4.44033840e-01 -4.26774404e-01 -4.13992091e-01 -4.09368264e-01 -4.06518558e-01
 -3.96702284e-01 -3.76515120e-01 -3.55765108e-01 -3.50692984e-01 -3.36942865e-01
 -3.33382496e-01 -3.30582081e-01 -2.49141684e-01 -2.37447185e-01 -2.30405413e-01
 -1.47500203e-02 -4.59279357e-03  2.55313053e-03  1.04157838e-02  1.56416933e-02
  2.82462870e-02  2.98536223e-02  3.28625303e-02  4.84275516e-02  5.41946957e-02
  5.94333330e-02  6.11525096e-02  6.42514438e-02  7.36662083e-02  8.37279568e-02
  8.86066026e-02  9.71248561e-02  9.92465503e-02  1.10509742e-01  1.12181918e-01
  1.19707637e-01  1.26285390e-01  1.31562915e-01  1.38998765e-01  1.48683524e-01
  1.50096388e-01  1.51091467e-01  1.60943125e-01  1.70785916e-01  1.72047565e-01
  1.76286057e-01  1.83872556e-01  1.91103344e-01  1.91632375e-01  1.95792522e-01
  1.99468016e-01  2.07017920e-01  2.09209728e-01  2.14495272e-01  2.16871383e-01
  2.24124363e-01  2.28685259e-01  2.35286454e-01  2.40398182e-01  2.45162548e-01
  2.48997740e-01  2.52007819e-01  2.54852497e-01  2.63045521e-01  2.70922715e-01
  2.73710228e-01  2.80650369e-01  2.88552928e-01  2.95022675e-01  3.05100278e-01
  3.12581635e-01  3.21989809e-01  3.23883090e-01  3.33296254e-01  3.36808482e-01
  3.48919491e-01  3.52052476e-01  3.73822139e-01  3.77882312e-01  3.89802969e-01
  3.96340372e-01  3.97739413e-01  4.20971126e-01  4.35932986e-01  4.43794678e-01
  5.67459353e-01  6.07656110e-01  6.37911407e-01  6.74334204e-01  6.76764385e-01
  6.81462826e-01  6.91486300e-01  7.00274353e-01  7.02320936e-01  7.15953483e-01
  7.23352146e-01  7.30214889e-01  7.32748850e-01  7.39797138e-01  7.58356170e-01
  7.60088241e-01  7.77491855e-01  7.85959074e-01  7.96467832e-01  8.11178529e-01
  8.21890555e-01  8.33012270e-01  8.37406444e-01  8.72314400e-01  9.02382829e-01
  9.24490825e-01  9.29669444e-01  9.40904481e-01  9.52768247e-01  9.62248322e-01
  9.76593812e-01  9.81726155e-01  1.00364136e+00  1.01927049e+00  1.03155410e+00
  1.05053845e+00  1.05245719e+00  1.07213247e+00  1.08821640e+00  1.10202233e+00
  1.12269104e+00  1.13505711e+00  1.14951691e+00  1.15581436e+00  1.16309371e+00
  1.17385330e+00  1.19578199e+00  1.21578915e+00  1.25843159e+00  1.27530548e+00
  1.29133726e+00  1.30889472e+00  1.34139234e+00  1.39186468e+00  1.43339537e+00
  1.43981433e+00  1.45621281e+00  1.46136071e+00  1.48104643e+00  1.50037841e+00
  1.50473592e+00  1.52759606e+00  1.65372124e+00  1.74316336e+00  1.74624425e+00
  1.78559866e+00  1.79568669e+00  1.81808131e+00  1.84754640e+00  1.85554019e+00
  1.89486420e+00  1.90140033e+00  1.92091411e+00  1.93513160e+00  1.96104945e+00
  1.96922111e+00  1.99283801e+00  2.01879091e+00  2.03257078e+00  2.05417342e+00
  2.07469148e+00  2.10291370e+00  2.11956741e+00  2.14344979e+00  2.15302615e+00
  2.20080074e+00  2.21474362e+00  2.24143308e+00  2.24774704e+00  2.29137120e+00
  2.30211195e+00  2.33246415e+00  2.33870054e+00  2.35830788e+00  2.37225758e+00
  2.42655670e+00  2.43128124e+00  2.44196106e+00  2.51360058e+00  2.58507527e+00
  2.59844051e+00  2.63695892e+00  2.67040958e+00  2.69293488e+00  2.74658256e+00
  2.75266898e+00  2.77787071e+00  2.79501291e+00  2.82808530e+00  2.83981605e+00
  2.93780628e+00  2.97440788e+00  3.14426306e+00  3.42073802e+00  4.10444839e+00
  4.23528013e+00  4.29279454e+00  4.29945829e+00  4.32913684e+00  4.34527011e+00
  4.37831038e+00  4.41910494e+00  4.51137224e+00  4.69979813e+00  4.77268851e+00
Alpha MO coefficients                      R   N=       55225
 -1.00381184e-06 -1.65553116e-06 -5.62395468e-06 -1.07161149e-05 -2.70077280e-05
 -3.26620910e-04 -1.35913687e-05  7.26529972e-05  2.67383844e-04  3.69417982e-06
 -3.59348938e-07 -1.38725406e-05  1.12764732e-05 -1.16814354e-06 -5.02865716e-06
  2.43960083e-03 -5.33260404e-06  4.62832588e-04  8.93258238e-04  1.05671288e-05
  8.02697634e-05  5.00155410e-06  5.04677674e-06  8.83171064e-06 -1.64724679e-04
 -2.81022392e-05  3.95041493e-05 -1.70610974e-04  1.32295432e-05  1.68523691e-05
 -3.67728199e-05  1.22214779e-05  1.79747008e-05 -5.54632576e-06 -6.92303966e-03
  3.06119043e-04 -1.18794413e-03 -2.04860314e-03 -2.90044559e-05 -5.03424425e-05
 -6.57594210e-05 -1.05079396e-04  1.96810105e-04  1.30143160e-03 -2.95661146e-04
  1.59888252e-04  6.84618413e-04 -1.59669538e-05 -4.80410771e-05  1.15799456e-04
  3.23788926e-05 -8.16714919e-05 -7.22818798e-05  1.65052979e-02  2.51107618e-03
 -2.27491677e-03 -4.07689615e-04  2.50321946e-05  1.66955057e-04  7.91436511e-07
 -3.53883984e-05  9.92684166e-01  3.47151652e-02 -6.83160726e-04  9.81013064e-04
 -2.36186398e-04  3.45049437e-03  7.27804239e-04 -1.00807326e-03  5.17808205e-04
 -8.38988903e-03 -8.25982025e-03 -8.36501237e-03 -4.86320107e-05  3.42780697e-05
  6.98424640e-05 -6.71174825e-03 -9.11552948e-04  9.91582965e-05  6.83928217e-04
 -4.01256462e-06 -1.62807503e-05  2.65737608e-05  1.74787766e-05 -1.05786032e-05
 -1.84232572e-04 -3.95213049e-04 -1.62572783e-04  2.56423550e-04 -1.32452539e-05
 -8.93739338e-06  3.73726028e-06 -2.07198452e-06  7.82351582e-07  1.32735966e-05
  1.53921493e-03  3.88568433e-03  2.03220086e-03 -1.77188455e-03 -4.05506488e-06
 -2.90356260e-05 -1.06237073e-05  1.58037361e-07  1.06372484e-05  4.80404641e-04
 -1.89094374e-04 -1.77165395e-04 -8.04301468e-06  4.51069360e-06 -9.96347938e-07
  3.90801110e-06  9.45022175e-06 -7.98260554e-06  1.56020604e-06 -8.77487738e-03
  5.81982121e-04  6.99839907e-04  2.82806791e-04  1.88782787e-06  1.01718998e-05
 -1.10051780e-06 -5.61521119e-06 -7.20414982e-06 -1.39969585e-04  7.29937601e-05
  3.53049817e-05 -5.99444389e-05  2.84046494e-06  2.68628390e-06 -3.38938813e-06
  1.55883197e-06  1.46724744e-06 -1.12583682e-06  1.72773104e-03 -8.99363211e-05
  4.16465212e-04  9.37163769e-04  3.16458547e-07  1.24284105e-06  6.28529217e-06
  4.40147823e-06 -2.72011391e-07  4.64448616e-07  6.45944619e-06 -3.53814543e-06
 -1.97801533e-05 -8.03015946e-07  1.06750777e-06  6.67896966e-07  1.09920936e-06
  2.31954859e-06  3.11265608e-06 -2.77616768e-03  1.02283728e-03  5.57749186e-04
 -4.19637710e-04 -4.57329960e-06 -2.84861986e-05 -7.59332012e-06  1.12525722e-06
  5.06860852e-06  3.30705121e-04 -1.27346129e-05  8.84526866e-05  1.89644137e-04
 -3.54790494e-06 -4.39238577e-06  7.76281536e-06  2.05266776e-06 -7.04239765e-06
  8.06042772e-06  3.58016079e-03  1.00255457e-03  5.49537125e-04 -6.66709304e-04
 -1.06789053e-06  3.65210198e-05  2.83235699e-06  5.10466073e-05 -6.34198531e-06
 -1.12516157e-05 -5.37888419e-06  1.40883238e-05  1.83778683e-05  1.34695669e-04
 -5.74989909e-06  5.40545448e-07 -9.96888049e-07 -6.62576547e-04  2.71897742e-04
  1.43201269e-04 -3.54914810e-05 -3.10704331e-05  1.46231954e-05  3.25842098e-06
 -1.74209147e-05  3.76982096e-05  1.89311620e-05 -3.98221516e-03  1.46383057e-04
  2.41875435e-04  3.35525457e-04  2.19067445e-05 -8.38802924e-06  3.43246035e-05
  1.07320850e-04 -4.52630693e-05 -3.94643866e-04 -1.83961024e-05  2.89056201e-05
  2.79952288e-04  7.69522637e-05 -2.34385041e-05  6.44709536e-04  1.81646732e-04
  3.67901390e-04  1.24629602e-05  1.30799745e-04 -2.03403219e-05 -7.42380626e-05
  8.80840843e-05 -9.55572866e-06 -1.65005633e-05  9.47033553e-04  3.58261196e-04
 -1.16521813e-05 -1.51743949e-04  2.74125460e-04  3.04250526e-04 -1.85561284e-05
  1.54382421e-04 -5.12622732e-05 -1.73188629e-04 -2.25352097e-05 -7.41295357e-05
  1.22081804e-05  3.56206406e-05 -4.94202880e-05  2.04113338e-05  8.72372091e-08
  1.57508127e-03 -5.81021474e-04 -3.14978705e-04  9.95009595e-04  2.20344875e-06
 -1.97165500e-05 -1.13481780e-05  5.72807637e-05  2.83949594e-05 -9.07612317e-05
  2.15698785e-02 -2.05656094e-02 -7.41889324e-03  1.82636754e-02 -2.64622249e-03
  5.33502304e-04  4.23321851e-06 -3.98672043e-05 -1.93540555e-05 -8.88379722e-03
 -5.76267635e-04 -2.34338341e-03 -2.51760732e-03  2.44831422e-04  3.43109644e-04
  2.39912862e-04 -1.78143913e-05 -5.31860777e-06  1.10302295e-04 -6.15729021e-02