Generated by Psi4
     FORCE                           RHF                       TESTBAS
Number of atoms                            I               35
Charge                                     I                0
Multiplicity                               I                1
Number of electrons                        I              128
Number of alpha electrons                  I               64
Number of beta electrons                   I               64
Number of basis functions                  I              359
Number of independent functions            I              359
Atomic numbers                             I   N=          35
           8           6           6           7           6           7
           6           8           8           1           1           6
           6           1           1           1           6           1
           1           1           6           6           1           1
           1           1           1           6           6           1
           1           6           1           1           1
Nuclear charges                            R   N=          35
  8.00000000e+00  6.00000000e+00  6.00000000e+00  7.00000000e+00  6.00000000e+00
  7.00000000e+00  6.00000000e+00  8.00000000e+00  8.00000000e+00  1.00000000e+00
  1.00000000e+00  6.00000000e+00  6.00000000e+00  1.00000000e+00  1.00000000e+00
  1.00000000e+00  6.00000000e+00  1.00000000e+00  1.00000000e+00  1.00000000e+00
  6.00000000e+00  6.00000000e+00  1.00000000e+00  1.00000000e+00  1.00000000e+00
  1.00000000e+00  1.00000000e+00  6.00000000e+00  6.00000000e+00  1.00000000e+00
  1.00000000e+00  6.00000000e+00  1.00000000e+00  1.00000000e+00  1.00000000e+00
Current cartesian coordinates              R   N=         105
  3.17145072e+00  1.32564245e+00  3.31199097e+00 -5.73289599e-01  8.29506476e-02
  9.68117567e-01  2.20022613e+00  9.00875348e-01  1.26542342e+00  3.65374518e+00
  1.14783169e+00 -9.10158596e-01  2.81474584e+00  1.20561651e+00 -3.39415819e+00
  2.52817015e-01  7.52377147e-01 -3.66578462e+00 -1.51064132e+00  2.51113464e-01
 -1.78062854e+00  4.20989540e+00  1.63417836e+00 -5.17219822e+00 -3.72595394e+00
  2.07116947e-02 -2.36162642e+00 -4.29501644e-01  8.78280661e-01 -5.45553758e+00
  5.48931971e+00  1.64784999e+00 -6.50788618e-01 -8.89300487e-01 -2.76801988e+00
  2.07909944e+00 -4.42290040e-01 -2.77660463e+00  4.97322725e+00  1.41915727e+00
 -2.05719134e+00  5.49709839e+00 -5.96555254e-01 -4.72810559e+00  5.64923695e+00
 -1.87142525e+00 -1.67892925e+00  5.98661544e+00 -3.58188468e+00 -3.80604633e+00
  1.64329873e+00 -3.67729828e+00 -5.70971509e+00  2.45951880e+00 -4.11481493e+00
 -3.92982971e+00 -3.42096106e-01 -5.00989728e+00 -2.65429822e+00  2.59803092e+00
  1.09055002e+00 -4.62903416e+00  9.24781932e-01  7.78719895e-01 -5.51352246e+00
 -1.82364916e+00  1.03115170e+00 -6.32392939e+00  2.11965699e+00  2.99777612e+00
 -3.85452222e+00  1.18820045e+00 -1.04571992e+00 -6.44062608e+00 -2.13044074e+00
  2.25546720e+00 -6.89836894e+00 -2.26450947e+00  9.50429948e-01 -3.99061445e+00
 -3.20887191e+00 -2.21395192e+00  2.04465889e+00  2.47891139e+00 -1.92017804e+00
  4.73152405e+00  1.57072506e+00 -1.63165749e+00  1.94880345e+00  4.45661229e+00
 -4.18971798e+00  1.46552384e+00  2.33772523e+00 -3.71488224e+00  6.05583745e+00
  3.84872879e-01 -1.07287963e-01  5.63056279e+00  1.96664076e+00 -5.55372474e+00
  5.24180739e+00 -4.43557655e-02 -3.40430040e+00  8.00249099e+00 -1.94112074e-01
Integer atomic weights                     I   N=          35
          15          12          12          14          12          14
          12          15          15           1           1          12
          12           1           1           1          12           1
           1           1          12          12           1           1
           1           1           1          12          12           1
           1          12           1           1           1
Real atomic weights                        R   N=          35
  1.59949146e+01  1.20000000e+01  1.20000000e+01  1.40030740e+01  1.20000000e+01
  1.40030740e+01  1.20000000e+01  1.59949146e+01  1.59949146e+01  1.00782503e+00
  1.00782503e+00  1.20000000e+01  1.20000000e+01  1.00782503e+00  1.00782503e+00
  1.00782503e+00  1.20000000e+01  1.00782503e+00  1.00782503e+00  1.00782503e+00
  1.20000000e+01  1.20000000e+01  1.00782503e+00  1.00782503e+00  1.00782503e+00
  1.00782503e+00  1.00782503e+00  1.20000000e+01  1.20000000e+01  1.00782503e+00
  1.00782503e+00  1.20000000e+01  1.00782503e+00  1.00782503e+00  1.00782503e+00
Number of primitive shells                 I              361
Number of contracted shells                I              172
Pure/Cartesian d shells                    I                1
Pure/Cartesian f shells                    I                1
Highest angular momentum                   I                2
Largest degree of contraction              I                6
Shell types                                I   N=         172
           0           0           1           0           1           2
           0           1           0           0           1           0
           1           2           0           1           0           0
           1           0           1           2           0           1
           0           0           1           0           1           2
           0           1           0           0           1           0
           1           2           0           1           0           0
           1           0           1           2           0           1
           0           0           1           0           1           2
           0           1           0           0           1           0
           1           2           0           1           0           0
           1           0           1           2           0           1
           0           0           0           0           0           0
           1           0           1           2           0           1
           0           0           1           0           1           2
           0           1           0           0           0           0
           0           0           0           0           1           0
           1           2           0           1           0           0
           0           0           0           0           0           0
           1           0           1           2           0           1
           0           0           1           0           1           2
           0           1           0           0           0           0
           0           0           0           0           0           0
           0           0           1           0           1           2
           0           1           0           0           1           0
           1           2           0           1           0           0
           0           0           0           0           1           0
           1           2           0           1           0           0
           0           0           0           0
Number of primitives per shell             I   N=         172
           6           3           3           1           1           1
           1           1           6           3           3           1
           1           1           1           1           6           3
           3           1           1           1           1           1
           6           3           3           1           1           1
           1           1           6           3           3           1
           1           1           1           1           6           3
           3           1           1           1           1           1
           6           3           3           1           1           1
           1           1           6           3           3           1
           1           1           1           1           6           3
           3           1           1           1           1           1
           3           1           3           1           6           3
           3           1           1           1           1           1
           6           3           3           1           1           1
           1           1           3           1           3           1
           3           1           6           3           3           1
           1           1           1           1           3           1
           3           1           3           1           6           3
           3           1           1           1           1           1
           6           3           3           1           1           1
           1           1           3           1           3           1
           3           1           3           1           3           1
           6           3           3           1           1           1
           1           1           6           3           3           1
           1           1           1           1           3           1
           3           1           6           3           3           1
           1           1           1           1           3           1
           3           1           3           1
Shell to atom map                          I   N=         172
           1           1           1           1           1           1
           1           1           2           2           2           2
           2           2           2           2           3           3
           3           3           3           3           3           3
           4           4           4           4           4           4
           4           4           5           5           5           5
           5           5           5           5           6           6
           6           6           6           6           6           6
           7           7           7           7           7           7
           7           7           8           8           8           8
           8           8           8           8           9           9
           9           9           9           9           9           9
          10          10          11          11          12          12
          12          12          12          12          12          12
          13          13          13          13          13          13
          13          13          14          14          15          15
          16          16          17          17          17          17
          17          17          17          17          18          18
          19          19          20          20          21          21
          21          21          21          21          21          21
          22          22          22          22          22          22
          22          22          23          23          24          24
          25          25          26          26          27          27
          28          28          28          28          28          28
          28          28          29          29          29          29
          29          29          29          29          30          30
          31          31          32          32          32          32
          32          32          32          32          33          33
          34          34          35          35
Primitive exponents                        R   N=         361
  5.48467170e+03  8.25234950e+02  1.88046960e+02  5.29645000e+01  1.68975700e+01
  5.79963530e+00  1.55396160e+01  3.59993360e+00  1.01376180e+00  1.55396160e+01
  3.59993360e+00  1.01376180e+00  2.70005800e-01  2.70005800e-01  8.00000000e-01
  8.45000000e-02  8.45000000e-02  3.04752490e+03  4.57369510e+02  1.03948690e+02
  2.92101550e+01  9.28666300e+00  3.16392700e+00  7.86827240e+00  1.88128850e+00
  5.44249300e-01  7.86827240e+00  1.88128850e+00  5.44249300e-01  1.68714400e-01
  1.68714400e-01  8.00000000e-01  4.38000000e-02  4.38000000e-02  3.04752490e+03
  4.57369510e+02  1.03948690e+02  2.92101550e+01  9.28666300e+00  3.16392700e+00
  7.86827240e+00  1.88128850e+00  5.44249300e-01  7.86827240e+00  1.88128850e+00
  5.44249300e-01  1.68714400e-01  1.68714400e-01  8.00000000e-01  4.38000000e-02
  4.38000000e-02  4.17351100e+03  6.27457900e+02  1.42902100e+02  4.02343300e+01
  1.28202100e+01  4.39043700e+00  1.16263580e+01  2.71628000e+00  7.72218000e-01
  1.16263580e+01  2.71628000e+00  7.72218000e-01  2.12031300e-01  2.12031300e-01
  8.00000000e-01  6.39000000e-02  6.39000000e-02  3.04752490e+03  4.57369510e+02
  1.03948690e+02  2.92101550e+01  9.28666300e+00  3.16392700e+00  7.86827240e+00
  1.88128850e+00  5.44249300e-01  7.86827240e+00  1.88128850e+00  5.44249300e-01
  1.68714400e-01  1.68714400e-01  8.00000000e-01  4.38000000e-02  4.38000000e-02
  4.17351100e+03  6.27457900e+02  1.42902100e+02  4.02343300e+01  1.28202100e+01
  4.39043700e+00  1.16263580e+01  2.71628000e+00  7.72218000e-01  1.16263580e+01
  2.71628000e+00  7.72218000e-01  2.12031300e-01  2.12031300e-01  8.00000000e-01
  6.39000000e-02  6.39000000e-02  3.04752490e+03  4.57369510e+02  1.03948690e+02
  2.92101550e+01  9.28666300e+00  3.16392700e+00  7.86827240e+00  1.88128850e+00
  5.44249300e-01  7.86827240e+00  1.88128850e+00  5.44249300e-01  1.68714400e-01
  1.68714400e-01  8.00000000e-01  4.38000000e-02  4.38000000e-02  5.48467170e+03
  8.25234950e+02  1.88046960e+02  5.29645000e+01  1.68975700e+01  5.79963530e+00
  1.55396160e+01  3.59993360e+00  1.01376180e+00  1.55396160e+01  3.59993360e+00
  1.01376180e+00  2.70005800e-01  2.70005800e-01  8.00000000e-01  8.45000000e-02
  8.45000000e-02  5.48467170e+03  8.25234950e+02  1.88046960e+02  5.29645000e+01
  1.68975700e+01  5.79963530e+00  1.55396160e+01  3.59993360e+00  1.01376180e+00
  1.55396160e+01  3.59993360e+00  1.01376180e+00  2.70005800e-01  2.70005800e-01
  8.00000000e-01  8.45000000e-02  8.45000000e-02  1.87311370e+01  2.82539370e+00
  6.40121700e-01  1.61277800e-01  1.87311370e+01  2.82539370e+00  6.40121700e-01
  1.61277800e-01  3.04752490e+03  4.57369510e+02  1.03948690e+02  2.92101550e+01
  9.28666300e+00  3.16392700e+00  7.86827240e+00  1.88128850e+00  5.44249300e-01
  7.86827240e+00  1.88128850e+00  5.44249300e-01  1.68714400e-01  1.68714400e-01
  8.00000000e-01  4.38000000e-02  4.38000000e-02  3.04752490e+03  4.57369510e+02
  1.03948690e+02  2.92101550e+01  9.28666300e+00  3.16392700e+00  7.86827240e+00
  1.88128850e+00  5.44249300e-01  7.86827240e+00  1.88128850e+00  5.44249300e-01
  1.68714400e-01  1.68714400e-01  8.00000000e-01  4.38000000e-02  4.38000000e-02
  1.87311370e+01  2.82539370e+00  6.40121700e-01  1.61277800e-01  1.87311370e+01
  2.82539370e+00  6.40121700e-01  1.61277800e-01  1.87311370e+01  2.82539370e+00
  6.40121700e-01  1.61277800e-01  3.04752490e+03  4.57369510e+02  1.03948690e+02
  2.92101550e+01  9.28666300e+00  3.16392700e+00  7.86827240e+00  1.88128850e+00
  5.44249300e-01  7.86827240e+00  1.88128850e+00  5.44249300e-01  1.68714400e-01
  1.68714400e-01  8.00000000e-01  4.38000000e-02  4.38000000e-02  1.87311370e+01
  2.82539370e+00  6.40121700e-01  1.61277800e-01  1.87311370e+01  2.82539370e+00
  6.40121700e-01  1.61277800e-01  1.87311370e+01  2.82539370e+00  6.40121700e-01
  1.61277800e-01  3.04752490e+03  4.57369510e+02  1.03948690e+02  2.92101550e+01
  9.28666300e+00  3.16392700e+00  7.86827240e+00  1.88128850e+00  5.44249300e-01
  7.86827240e+00  1.88128850e+00  5.44249300e-01  1.68714400e-01  1.68714400e-01
  8.00000000e-01  4.38000000e-02  4.38000000e-02  3.04752490e+03  4.57369510e+02
  1.03948690e+02  2.92101550e+01  9.28666300e+00  3.16392700e+00  7.86827240e+00
  1.88128850e+00  5.44249300e-01  7.86827240e+00  1.88128850e+00  5.44249300e-01
  1.68714400e-01  1.68714400e-01  8.00000000e-01  4.38000000e-02  4.38000000e-02
  1.87311370e+01  2.82539370e+00  6.40121700e-01  1.61277800e-01  1.87311370e+01
  2.82539370e+00  6.40121700e-01  1.61277800e-01  1.87311370e+01  2.82539370e+00
  6.40121700e-01  1.61277800e-01  1.87311370e+01  2.82539370e+00  6.40121700e-01
  1.61277800e-01  1.87311370e+01  2.82539370e+00  6.40121700e-01  1.61277800e-01
  3.04752490e+03  4.57369510e+02  1.03948690e+02  2.92101550e+01  9.28666300e+00
  3.16392700e+00  7.86827240e+00  1.88128850e+00  5.44249300e-01  7.86827240e+00
  1.88128850e+00  5.44249300e-01  1.68714400e-01  1.68714400e-01  8.00000000e-01
  4.38000000e-02  4.38000000e-02  3.04752490e+03  4.57369510e+02  1.03948690e+02
  2.92101550e+01  9.28666300e+00  3.16392700e+00  7.86827240e+00  1.88128850e+00
  5.44249300e-01  7.86827240e+00  1.88128850e+00  5.44249300e-01  1.68714400e-01
  1.68714400e-01  8.00000000e-01  4.38000000e-02  4.38000000e-02  1.87311370e+01
  2.82539370e+00  6.40121700e-01  1.61277800e-01  1.87311370e+01  2.82539370e+00
  6.40121700e-01  1.61277800e-01  3.04752490e+03  4.57369510e+02  1.03948690e+02
  2.92101550e+01  9.28666300e+00  3.16392700e+00  7.86827240e+00  1.88128850e+00
  5.44249300e-01  7.86827240e+00  1.88128850e+00  5.44249300e-01  1.68714400e-01
  1.68714400e-01  8.00000000e-01  4.38000000e-02  4.38000000e-02  1.87311370e+01
  2.82539370e+00  6.40121700e-01  1.61277800e-01  1.87311370e+01  2.82539370e+00
  6.40121700e-01  1.61277800e-01  1.87311370e+01  2.82539370e+00  6.40121700e-01
  1.61277800e-01
Contraction coefficients                   R   N=         361
  1.83109981e-03  1.39500985e-02  6.84450927e-02  2.32714275e-01  4.70192950e-01
  3.58520862e-01 -1.10777504e-01 -1.48026305e-01  1.13076704e+00  7.08742995e-02
  3.39752798e-01  7.27158595e-01  1.00000000e+00  1.00000000e+00  1.00000000e+00
  1.00000000e+00  1.00000000e+00  1.83470016e-03  1.40373012e-02  6.88426061e-02
  2.32184421e-01  4.67941342e-01  3.62312032e-01 -1.19332409e-01 -1.60854212e-01
  1.14345648e+00  6.89990956e-02  3.16423980e-01  7.44308252e-01  1.00000000e+00
  1.00000000e+00  1.00000000e+00  1.00000000e+00  1.00000000e+00  1.83470016e-03
  1.40373012e-02  6.88426061e-02  2.32184421e-01  4.67941342e-01  3.62312032e-01
 -1.19332409e-01 -1.60854212e-01  1.14345648e+00  6.89990956e-02  3.16423980e-01
  7.44308252e-01  1.00000000e+00  1.00000000e+00  1.00000000e+00  1.00000000e+00
  1.00000000e+00  1.83479944e-03  1.39949958e-02  6.85869792e-02  2.32240930e-01
  4.69069858e-01  3.60454891e-01 -1.14961023e-01 -1.69118034e-01  1.14585223e+00
  6.75800232e-02  3.23907111e-01  7.40895255e-01  1.00000000e+00  1.00000000e+00
  1.00000000e+00  1.00000000e+00  1.00000000e+00  1.83470016e-03  1.40373012e-02
  6.88426061e-02  2.32184421e-01  4.67941342e-01  3.62312032e-01 -1.19332409e-01
 -1.60854212e-01  1.14345648e+00  6.89990956e-02  3.16423980e-01  7.44308252e-01
  1.00000000e+00  1.00000000e+00  1.00000000e+00  1.00000000e+00  1.00000000e+00
  1.83479944e-03  1.39949958e-02  6.85869792e-02  2.32240930e-01  4.69069858e-01
  3.60454891e-01 -1.14961023e-01 -1.69118034e-01  1.14585223e+00  6.75800232e-02
  3.23907111e-01  7.40895255e-01  1.00000000e+00  1.00000000e+00  1.00000000e+00
  1.00000000e+00  1.00000000e+00  1.83470016e-03  1.40373012e-02  6.88426061e-02
  2.32184421e-01  4.67941342e-01  3.62312032e-01 -1.19332409e-01 -1.60854212e-01
  1.14345648e+00  6.89990956e-02  3.16423980e-01  7.44308252e-01  1.00000000e+00
  1.00000000e+00  1.00000000e+00  1.00000000e+00  1.00000000e+00  1.83109981e-03
  1.39500985e-02  6.84450927e-02  2.32714275e-01  4.70192950e-01  3.58520862e-01
 -1.10777504e-01 -1.48026305e-01  1.13076704e+00  7.08742995e-02  3.39752798e-01
  7.27158595e-01  1.00000000e+00  1.00000000e+00  1.00000000e+00  1.00000000e+00
  1.00000000e+00  1.83109981e-03  1.39500985e-02  6.84450927e-02  2.32714275e-01
  4.70192950e-01  3.58520862e-01 -1.10777504e-01 -1.48026305e-01  1.13076704e+00
  7.08742995e-02  3.39752798e-01  7.27158595e-01  1.00000000e+00  1.00000000e+00
  1.00000000e+00  1.00000000e+00  1.00000000e+00  3.34945995e-02  2.34726947e-01
  8.13757318e-01  1.00000000e+00  3.34945995e-02  2.34726947e-01  8.13757318e-01
  1.00000000e+00  1.83470016e-03  1.40373012e-02  6.88426061e-02  2.32184421e-01
  4.67941342e-01  3.62312032e-01 -1.19332409e-01 -1.60854212e-01  1.14345648e+00
  6.89990956e-02  3.16423980e-01  7.44308252e-01  1.00000000e+00  1.00000000e+00
  1.00000000e+00  1.00000000e+00  1.00000000e+00  1.83470016e-03  1.40373012e-02
  6.88426061e-02  2.32184421e-01  4.67941342e-01  3.62312032e-01 -1.19332409e-01
 -1.60854212e-01  1.14345648e+00  6.89990956e-02  3.16423980e-01  7.44308252e-01
  1.00000000e+00  1.00000000e+00  1.00000000e+00  1.00000000e+00  1.00000000e+00
  3.34945995e-02  2.34726947e-01  8.13757318e-01  1.00000000e+00  3.34945995e-02
  2.34726947e-01  8.13757318e-01  1.00000000e+00  3.34945995e-02  2.34726947e-01
  8.13757318e-01  1.00000000e+00  1.83470016e-03  1.40373012e-02  6.88426061e-02
  2.32184421e-01  4.67941342e-01  3.62312032e-01 -1.19332409e-01 -1.60854212e-01
  1.14345648e+00  6.89990956e-02  3.16423980e-01  7.44308252e-01  1.00000000e+00
  1.00000000e+00  1.00000000e+00  1.00000000e+00  1.00000000e+00  3.34945995e-02
  2.34726947e-01  8.13757318e-01  1.00000000e+00  3.34945995e-02  2.34726947e-01
  8.13757318e-01  1.00000000e+00  3.34945995e-02  2.34726947e-01  8.13757318e-01
  1.00000000e+00  1.83470016e-03  1.40373012e-02  6.88426061e-02  2.32184421e-01
  4.67941342e-01  3.62312032e-01 -1.19332409e-01 -1.60854212e-01  1.14345648e+00
  6.89990956e-02  3.16423980e-01  7.44308252e-01  1.00000000e+00  1.00000000e+00
  1.00000000e+00  1.00000000e+00  1.00000000e+00  1.83470016e-03  1.40373012e-02
  6.88426061e-02  2.32184421e-01  4.67941342e-01  3.62312032e-01 -1.19332409e-01
 -1.60854212e-01  1.14345648e+00  6.89990956e-02  3.16423980e-01  7.44308252e-01
  1.00000000e+00  1.00000000e+00  1.00000000e+00  1.00000000e+00  1.00000000e+00
  3.34945995e-02  2.34726947e-01  8.13757318e-01  1.00000000e+00  3.34945995e-02
  2.34726947e-01  8.13757318e-01  1.00000000e+00  3.34945995e-02  2.34726947e-01
  8.13757318e-01  1.00000000e+00  3.34945995e-02  2.34726947e-01  8.13757318e-01
  1.00000000e+00  3.34945995e-02  2.34726947e-01  8.13757318e-01  1.00000000e+00
  1.83470016e-03  1.40373012e-02  6.88426061e-02  2.32184421e-01  4.67941342e-01
  3.62312032e-01 -1.19332409e-01 -1.60854212e-01  1.14345648e+00  6.89990956e-02
  3.16423980e-01  7.44308252e-01  1.00000000e+00  1.00000000e+00  1.00000000e+00
  1.00000000e+00  1.00000000e+00  1.83470016e-03  1.40373012e-02  6.88426061e-02
  2.32184421e-01  4.67941342e-01  3.62312032e-01 -1.19332409e-01 -1.60854212e-01
  1.14345648e+00  6.89990956e-02  3.16423980e-01  7.44308252e-01  1.00000000e+00
  1.00000000e+00  1.00000000e+00  1.00000000e+00  1.00000000e+00  3.34945995e-02
  2.34726947e-01  8.13757318e-01  1.00000000e+00  3.34945995e-02  2.34726947e-01
  8.13757318e-01  1.00000000e+00  1.83470016e-03  1.40373012e-02  6.88426061e-02
  2.32184421e-01  4.67941342e-01  3.62312032e-01 -1.19332409e-01 -1.60854212e-01
  1.14345648e+00  6.89990956e-02  3.16423980e-01  7.44308252e-01  1.00000000e+00
  1.00000000e+00  1.00000000e+00  1.00000000e+00  1.00000000e+00  3.34945995e-02
  2.34726947e-01  8.13757318e-01  1.00000000e+00  3.34945995e-02  2.34726947e-01
  8.13757318e-01  1.00000000e+00  3.34945995e-02  2.34726947e-01  8.13757318e-01
  1.00000000e+00
Coordinates of each shell                  R   N=         516
  3.17145072e+00  1.32564245e+00  3.31199097e+00  3.17145072e+00  1.32564245e+00
  3.31199097e+00  3.17145072e+00  1.32564245e+00  3.31199097e+00  3.17145072e+00
  1.32564245e+00  3.31199097e+00  3.17145072e+00  1.32564245e+00  3.31199097e+00
  3.17145072e+00  1.32564245e+00  3.31199097e+00  3.17145072e+00  1.32564245e+00
  3.31199097e+00  3.17145072e+00  1.32564245e+00  3.31199097e+00 -5.73289599e-01
  8.29506476e-02  9.68117567e-01 -5.73289599e-01  8.29506476e-02  9.68117567e-01
 -5.73289599e-01  8.29506476e-02  9.68117567e-01 -5.73289599e-01  8.29506476e-02
  9.68117567e-01 -5.73289599e-01  8.29506476e-02  9.68117567e-01 -5.73289599e-01
  8.29506476e-02  9.68117567e-01 -5.73289599e-01  8.29506476e-02  9.68117567e-01
 -5.73289599e-01  8.29506476e-02  9.68117567e-01  2.20022613e+00  9.00875348e-01
  1.26542342e+00  2.20022613e+00  9.00875348e-01  1.26542342e+00  2.20022613e+00
  9.00875348e-01  1.26542342e+00  2.20022613e+00  9.00875348e-01  1.26542342e+00
  2.20022613e+00  9.00875348e-01  1.26542342e+00  2.20022613e+00  9.00875348e-01
  1.26542342e+00  2.20022613e+00  9.00875348e-01  1.26542342e+00  2.20022613e+00
  9.00875348e-01  1.26542342e+00  3.65374518e+00  1.14783169e+00 -9.10158596e-01
  3.65374518e+00  1.14783169e+00 -9.10158596e-01  3.65374518e+00  1.14783169e+00
 -9.10158596e-01  3.65374518e+00  1.14783169e+00 -9.10158596e-01  3.65374518e+00
  1.14783169e+00 -9.10158596e-01  3.65374518e+00  1.14783169e+00 -9.10158596e-01
  3.65374518e+00  1.14783169e+00 -9.10158596e-01  3.65374518e+00  1.14783169e+00
 -9.10158596e-01  2.81474584e+00  1.20561651e+00 -3.39415819e+00  2.81474584e+00
  1.20561651e+00 -3.39415819e+00  2.81474584e+00  1.20561651e+00 -3.39415819e+00
  2.81474584e+00  1.20561651e+00 -3.39415819e+00  2.81474584e+00  1.20561651e+00
 -3.39415819e+00  2.81474584e+00  1.20561651e+00 -3.39415819e+00  2.81474584e+00
  1.20561651e+00 -3.39415819e+00  2.81474584e+00  1.20561651e+00 -3.39415819e+00
  2.52817015e-01  7.52377147e-01 -3.66578462e+00  2.52817015e-01  7.52377147e-01
 -3.66578462e+00  2.52817015e-01  7.52377147e-01 -3.66578462e+00  2.52817015e-01
  7.52377147e-01 -3.66578462e+00  2.52817015e-01  7.52377147e-01 -3.66578462e+00
  2.52817015e-01  7.52377147e-01 -3.66578462e+00  2.52817015e-01  7.52377147e-01
 -3.66578462e+00  2.52817015e-01  7.52377147e-01 -3.66578462e+00 -1.51064132e+00
  2.51113464e-01 -1.78062854e+00 -1.51064132e+00  2.51113464e-01 -1.78062854e+00
 -1.51064132e+00  2.51113464e-01 -1.78062854e+00 -1.51064132e+00  2.51113464e-01
 -1.78062854e+00 -1.51064132e+00  2.51113464e-01 -1.78062854e+00 -1.51064132e+00
  2.51113464e-01 -1.78062854e+00 -1.51064132e+00  2.51113464e-01 -1.78062854e+00
 -1.51064132e+00  2.51113464e-01 -1.78062854e+00  4.20989540e+00  1.63417836e+00
 -5.17219822e+00  4.20989540e+00  1.63417836e+00 -5.17219822e+00  4.20989540e+00
  1.63417836e+00 -5.17219822e+00  4.20989540e+00  1.63417836e+00 -5.17219822e+00
  4.20989540e+00  1.63417836e+00 -5.17219822e+00  4.20989540e+00  1.63417836e+00
 -5.17219822e+00  4.20989540e+00  1.63417836e+00 -5.17219822e+00  4.20989540e+00
  1.63417836e+00 -5.17219822e+00 -3.72595394e+00  2.07116947e-02 -2.36162642e+00
 -3.72595394e+00  2.07116947e-02 -2.36162642e+00 -3.72595394e+00  2.07116947e-02
 -2.36162642e+00 -3.72595394e+00  2.07116947e-02 -2.36162642e+00 -3.72595394e+00
  2.07116947e-02 -2.36162642e+00 -3.72595394e+00  2.07116947e-02 -2.36162642e+00
 -3.72595394e+00  2.07116947e-02 -2.36162642e+00 -3.72595394e+00  2.07116947e-02
 -2.36162642e+00 -4.29501644e-01  8.78280661e-01 -5.45553758e+00 -4.29501644e-01
  8.78280661e-01 -5.45553758e+00  5.48931971e+00  1.64784999e+00 -6.50788618e-01
  5.48931971e+00  1.64784999e+00 -6.50788618e-01 -8.89300487e-01 -2.76801988e+00
  2.07909944e+00 -8.89300487e-01 -2.76801988e+00  2.07909944e+00 -8.89300487e-01
 -2.76801988e+00  2.07909944e+00 -8.89300487e-01 -2.76801988e+00  2.07909944e+00
 -8.89300487e-01 -2.76801988e+00  2.07909944e+00 -8.89300487e-01 -2.76801988e+00
  2.07909944e+00 -8.89300487e-01 -2.76801988e+00  2.07909944e+00 -8.89300487e-01
 -2.76801988e+00  2.07909944e+00 -4.42290040e-01 -2.77660463e+00  4.97322725e+00
 -4.42290040e-01 -2.77660463e+00  4.97322725e+00 -4.42290040e-01 -2.77660463e+00
  4.97322725e+00 -4.42290040e-01 -2.77660463e+00  4.97322725e+00 -4.42290040e-01
 -2.77660463e+00  4.97322725e+00 -4.42290040e-01 -2.77660463e+00  4.97322725e+00
 -4.42290040e-01 -2.77660463e+00  4.97322725e+00 -4.42290040e-01 -2.77660463e+00
  4.97322725e+00  1.41915727e+00 -2.05719134e+00  5.49709839e+00  1.41915727e+00
 -2.05719134e+00  5.49709839e+00 -5.96555254e-01 -4.72810559e+00  5.64923695e+00
 -5.96555254e-01 -4.72810559e+00  5.64923695e+00 -1.87142525e+00 -1.67892925e+00
  5.98661544e+00 -1.87142525e+00 -1.67892925e+00  5.98661544e+00 -3.58188468e+00
 -3.80604633e+00  1.64329873e+00 -3.58188468e+00 -3.80604633e+00  1.64329873e+00
 -3.58188468e+00 -3.80604633e+00  1.64329873e+00 -3.58188468e+00 -3.80604633e+00
  1.64329873e+00 -3.58188468e+00 -3.80604633e+00  1.64329873e+00 -3.58188468e+00
 -3.80604633e+00  1.64329873e+00 -3.58188468e+00 -3.80604633e+00  1.64329873e+00
 -3.58188468e+00 -3.80604633e+00  1.64329873e+00 -3.67729828e+00 -5.70971509e+00
  2.45951880e+00 -3.67729828e+00 -5.70971509e+00  2.45951880e+00 -4.11481493e+00
 -3.92982971e+00 -3.42096106e-01 -4.11481493e+00 -3.92982971e+00 -3.42096106e-01
 -5.00989728e+00 -2.65429822e+00  2.59803092e+00 -5.00989728e+00 -2.65429822e+00
  2.59803092e+00  1.09055002e+00 -4.62903416e+00  9.24781932e-01  1.09055002e+00
 -4.62903416e+00  9.24781932e-01  1.09055002e+00 -4.62903416e+00  9.24781932e-01
  1.09055002e+00 -4.62903416e+00  9.24781932e-01  1.09055002e+00 -4.62903416e+00
  9.24781932e-01  1.09055002e+00 -4.62903416e+00  9.24781932e-01  1.09055002e+00
 -4.62903416e+00  9.24781932e-01  1.09055002e+00 -4.62903416e+00  9.24781932e-01
  7.78719895e-01 -5.51352246e+00 -1.82364916e+00  7.78719895e-01 -5.51352246e+00
 -1.82364916e+00  7.78719895e-01 -5.51352246e+00 -1.82364916e+00  7.78719895e-01
 -5.51352246e+00 -1.82364916e+00  7.78719895e-01 -5.51352246e+00 -1.82364916e+00
  7.78719895e-01 -5.51352246e+00 -1.82364916e+00  7.78719895e-01 -5.51352246e+00
 -1.82364916e+00  7.78719895e-01 -5.51352246e+00 -1.82364916e+00  1.03115170e+00
 -6.32392939e+00  2.11965699e+00  1.03115170e+00 -6.32392939e+00  2.11965699e+00
  2.99777612e+00 -3.85452222e+00  1.18820045e+00  2.99777612e+00 -3.85452222e+00
  1.18820045e+00 -1.04571992e+00 -6.44062608e+00 -2.13044074e+00 -1.04571992e+00
 -6.44062608e+00 -2.13044074e+00  2.25546720e+00 -6.89836894e+00 -2.26450947e+00
  2.25546720e+00 -6.89836894e+00 -2.26450947e+00  9.50429948e-01 -3.99061445e+00