Generated by Psi4
     FORCE                           RHF                       TESTBAS
Number of atoms                            I               30
Charge                                     I                0
Multiplicity                               I                1
Number of electrons                        I              140
Number of alpha electrons                  I               70
Number of beta electrons                   I               70
Number of basis functions                  I              387
Number of independent functions            I              387
Atomic numbers                             I   N=          30
           6           7           6           7           6           6
           6           6           6           1           6           6
           6           6           6           6           1           1
           1           8          17           1           1           6
           6           1           1           1           1           1
Nuclear charges                            R   N=          30
  6.00000000e+00  7.00000000e+00  6.00000000e+00  7.00000000e+00  6.00000000e+00
  6.00000000e+00  6.00000000e+00  6.00000000e+00  6.00000000e+00  1.00000000e+00
  6.00000000e+00  6.00000000e+00  6.00000000e+00  6.00000000e+00  6.00000000e+00
  6.00000000e+00  1.00000000e+00  1.00000000e+00  1.00000000e+00  8.00000000e+00
  1.70000000e+01  1.00000000e+00  1.00000000e+00  6.00000000e+00  6.00000000e+00
  1.00000000e+00  1.00000000e+00  1.00000000e+00  1.00000000e+00  1.00000000e+00
Current cartesian coordinates              R   N=          90
 -2.37780793e+00  2.13264292e+00 -1.66023647e+00 -1.52599292e+00  3.23983832e+00
 -3.92168269e+00 -6.00098976e-01  1.99301757e+00 -6.03732023e+00  1.93538126e+00
 -1.16272438e+00 -3.75458956e+00 -4.39847836e-02 -8.06395110e-01 -5.62817126e+00
  1.46396331e+00 -7.36150389e-01 -1.40700113e+00 -1.01101017e+00  1.98441128e-01
 -4.22911581e-01 -4.24461212e+00  8.71748338e-02  2.84203327e+00 -2.00115232e+00
 -8.18757429e-01  1.82714313e+00 -9.84252771e-01 -2.31871403e+00  2.78425389e+00
  3.55201370e+00 -1.21766463e+00  4.34447771e-01  3.82722698e+00  2.28629636e-01
  2.64395039e+00  5.84998856e+00 -1.97513556e-01  4.28542610e+00  7.61221570e+00
 -2.08978579e+00  3.75438434e+00  7.35285404e+00 -3.54198629e+00  1.55973840e+00
  5.34764586e+00 -3.10329748e+00 -9.11147368e-02  6.04727977e+00  9.52751880e-01
  5.97563237e+00  9.17804735e+00 -2.43100964e+00  5.03938274e+00  8.71601937e+00
 -5.01902543e+00  1.13584629e+00 -2.81908627e-01  3.10569065e+00 -8.02941362e+00
 -5.44392971e+00 -1.24400251e+00  5.63639111e+00  5.88865759e-01 -1.57298539e+00
 -7.43311905e+00 -1.81477359e+00 -1.75828305e+00 -5.07619121e+00 -4.61574319e+00
  3.05983070e+00 -5.68417780e-01 -5.55110046e+00  2.06327304e+00  1.67298724e+00
 -5.64539078e+00  4.56428116e+00 -1.51598073e+00 -7.28883565e+00  2.78406148e+00
  2.48879197e+00  5.14568804e+00 -4.20473852e+00 -1.80901723e+00  2.48037747e+00
  1.71779376e+00  3.06965907e+00 -2.11537585e+00  5.02614429e+00 -4.29826880e+00
Integer atomic weights                     I   N=          30
          12          14          12          14          12          12
          12          12          12           1          12          12
          12          12          12          12           1           1
           1          15          34           1           1          12
          12           1           1           1           1           1
Real atomic weights                        R   N=          30
  1.20000000e+01  1.40030740e+01  1.20000000e+01  1.40030740e+01  1.20000000e+01
  1.20000000e+01  1.20000000e+01  1.20000000e+01  1.20000000e+01  1.00782503e+00
  1.20000000e+01  1.20000000e+01  1.20000000e+01  1.20000000e+01  1.20000000e+01
  1.20000000e+01  1.00782503e+00  1.00782503e+00  1.00782503e+00  1.59949146e+01
  3.49688527e+01  1.00782503e+00  1.00782503e+00  1.20000000e+01  1.20000000e+01
  1.00782503e+00  1.00782503e+00  1.00782503e+00  1.00782503e+00  1.00782503e+00
Number of primitive shells                 I              379
Number of contracted shells                I              176
Pure/Cartesian d shells                    I                1
Pure/Cartesian f shells                    I                1
Highest angular momentum                   I                2
Largest degree of contraction              I                6
Shell types                                I   N=         176
           0           0           1           0           1           2
           0           1           0           0           1           0
           1           2           0           1           0           0
           1           0           1           2           0           1
           0           0           1           0           1           2
           0           1           0           0           1           0
           1           2           0           1           0           0
           1           0           1           2           0           1
           0           0           1           0           1           2
           0           1           0           0           1           0
           1           2           0           1           0           0
           1           0           1           2           0           1
           0           0           0           0           1           0
           1           2           0           1           0           0
           1           0           1           2           0           1
           0           0           1           0           1           2
           0           1           0           0           1           0
           1           2           0           1           0           0
           1           0           1           2           0           1
           0           0           1           0           1           2
           0           1           0           0           0           0
           0           0           0           0           1           0
           1           2           0           1           0           0
           1           0           1           0           1           2
           0           1           0           0           0           0
           0           0           1           0           1           2
           0           1           0           0           1           0
           1           2           0           1           0           0
           0           0           0           0           0           0
           0           0
Number of primitives per shell             I   N=         176
           6           3           3           1           1           1
           1           1           6           3           3           1
           1           1           1           1           6           3
           3           1           1           1           1           1
           6           3           3           1           1           1
           1           1           6           3           3           1
           1           1           1           1           6           3
           3           1           1           1           1           1
           6           3           3           1           1           1
           1           1           6           3           3           1
           1           1           1           1           6           3
           3           1           1           1           1           1
           3           1           6           3           3           1
           1           1           1           1           6           3
           3           1           1           1           1           1
           6           3           3           1           1           1
           1           1           6           3           3           1
           1           1           1           1           6           3
           3           1           1           1           1           1
           6           3           3           1           1           1
           1           1           3           1           3           1
           3           1           6           3           3           1
           1           1           1           1           6           6
           6           3           3           1           1           1
           1           1           3           1           3           1
           6           3           3           1           1           1
           1           1           6           3           3           1
           1           1           1           1           3           1
           3           1           3           1           3           1
           3           1
Shell to atom map                          I   N=         176
           1           1           1           1           1           1
           1           1           2           2           2           2
           2           2           2           2           3           3
           3           3           3           3           3           3
           4           4           4           4           4           4
           4           4           5           5           5           5
           5           5           5           5           6           6
           6           6           6           6           6           6
           7           7           7           7           7           7
           7           7           8           8           8           8
           8           8           8           8           9           9
           9           9           9           9           9           9
          10          10          11          11          11          11
          11          11          11          11          12          12
          12          12          12          12          12          12
          13          13          13          13          13          13
          13          13          14          14          14          14
          14          14          14          14          15          15
          15          15          15          15          15          15
          16          16          16          16          16          16
          16          16          17          17          18          18
          19          19          20          20          20          20
          20          20          20          20          21          21
          21          21          21          21          21          21
          21          21          22          22          23          23
          24          24          24          24          24          24
          24          24          25          25          25          25
          25          25          25          25          26          26
          27          27          28          28          29          29
          30          30
Primitive exponents                        R   N=         379
  3.04752490e+03  4.57369510e+02  1.03948690e+02  2.92101550e+01  9.28666300e+00
  3.16392700e+00  7.86827240e+00  1.88128850e+00  5.44249300e-01  7.86827240e+00
  1.88128850e+00  5.44249300e-01  1.68714400e-01  1.68714400e-01  8.00000000e-01
  4.38000000e-02  4.38000000e-02  4.17351100e+03  6.27457900e+02  1.42902100e+02
  4.02343300e+01  1.28202100e+01  4.39043700e+00  1.16263580e+01  2.71628000e+00
  7.72218000e-01  1.16263580e+01  2.71628000e+00  7.72218000e-01  2.12031300e-01
  2.12031300e-01  8.00000000e-01  6.39000000e-02  6.39000000e-02  3.04752490e+03
  4.57369510e+02  1.03948690e+02  2.92101550e+01  9.28666300e+00  3.16392700e+00
  7.86827240e+00  1.88128850e+00  5.44249300e-01  7.86827240e+00  1.88128850e+00
  5.44249300e-01  1.68714400e-01  1.68714400e-01  8.00000000e-01  4.38000000e-02
  4.38000000e-02  4.17351100e+03  6.27457900e+02  1.42902100e+02  4.02343300e+01
  1.28202100e+01  4.39043700e+00  1.16263580e+01  2.71628000e+00  7.72218000e-01
  1.16263580e+01  2.71628000e+00  7.72218000e-01  2.12031300e-01  2.12031300e-01
  8.00000000e-01  6.39000000e-02  6.39000000e-02  3.04752490e+03  4.57369510e+02
  1.03948690e+02  2.92101550e+01  9.28666300e+00  3.16392700e+00  7.86827240e+00
  1.88128850e+00  5.44249300e-01  7.86827240e+00  1.88128850e+00  5.44249300e-01
  1.68714400e-01  1.68714400e-01  8.00000000e-01  4.38000000e-02  4.38000000e-02
  3.04752490e+03  4.57369510e+02  1.03948690e+02  2.92101550e+01  9.28666300e+00
  3.16392700e+00  7.86827240e+00  1.88128850e+00  5.44249300e-01  7.86827240e+00
  1.88128850e+00  5.44249300e-01  1.68714400e-01  1.68714400e-01  8.00000000e-01
  4.38000000e-02  4.38000000e-02  3.04752490e+03  4.57369510e+02  1.03948690e+02
  2.92101550e+01  9.28666300e+00  3.16392700e+00  7.86827240e+00  1.88128850e+00
  5.44249300e-01  7.86827240e+00  1.88128850e+00  5.44249300e-01  1.68714400e-01
  1.68714400e-01  8.00000000e-01  4.38000000e-02  4.38000000e-02  3.04752490e+03
  4.57369510e+02  1.03948690e+02  2.92101550e+01  9.28666300e+00  3.16392700e+00
  7.86827240e+00  1.88128850e+00  5.44249300e-01  7.86827240e+00  1.88128850e+00
  5.44249300e-01  1.68714400e-01  1.68714400e-01  8.00000000e-01  4.38000000e-02
  4.38000000e-02  3.04752490e+03  4.57369510e+02  1.03948690e+02  2.92101550e+01
  9.28666300e+00  3.16392700e+00  7.86827240e+00  1.88128850e+00  5.44249300e-01
  7.86827240e+00  1.88128850e+00  5.44249300e-01  1.68714400e-01  1.68714400e-01
  8.00000000e-01  4.38000000e-02  4.38000000e-02  1.87311370e+01  2.82539370e+00
  6.40121700e-01  1.61277800e-01  3.04752490e+03  4.57369510e+02  1.03948690e+02
  2.92101550e+01  9.28666300e+00  3.16392700e+00  7.86827240e+00  1.88128850e+00
  5.44249300e-01  7.86827240e+00  1.88128850e+00  5.44249300e-01  1.68714400e-01
  1.68714400e-01  8.00000000e-01  4.38000000e-02  4.38000000e-02  3.04752490e+03
  4.57369510e+02  1.03948690e+02  2.92101550e+01  9.28666300e+00  3.16392700e+00
  7.86827240e+00  1.88128850e+00  5.44249300e-01  7.86827240e+00  1.88128850e+00
  5.44249300e-01  1.68714400e-01  1.68714400e-01  8.00000000e-01  4.38000000e-02
  4.38000000e-02  3.04752490e+03  4.57369510e+02  1.03948690e+02  2.92101550e+01
  9.28666300e+00  3.16392700e+00  7.86827240e+00  1.88128850e+00  5.44249300e-01
  7.86827240e+00  1.88128850e+00  5.44249300e-01  1.68714400e-01  1.68714400e-01
  8.00000000e-01  4.38000000e-02  4.38000000e-02  3.04752490e+03  4.57369510e+02
  1.03948690e+02  2.92101550e+01  9.28666300e+00  3.16392700e+00  7.86827240e+00
  1.88128850e+00  5.44249300e-01  7.86827240e+00  1.88128850e+00  5.44249300e-01
  1.68714400e-01  1.68714400e-01  8.00000000e-01  4.38000000e-02  4.38000000e-02
  3.04752490e+03  4.57369510e+02  1.03948690e+02  2.92101550e+01  9.28666300e+00
  3.16392700e+00  7.86827240e+00  1.88128850e+00  5.44249300e-01  7.86827240e+00
  1.88128850e+00  5.44249300e-01  1.68714400e-01  1.68714400e-01  8.00000000e-01
  4.38000000e-02  4.38000000e-02  3.04752490e+03  4.57369510e+02  1.03948690e+02
  2.92101550e+01  9.28666300e+00  3.16392700e+00  7.86827240e+00  1.88128850e+00
  5.44249300e-01  7.86827240e+00  1.88128850e+00  5.44249300e-01  1.68714400e-01
  1.68714400e-01  8.00000000e-01  4.38000000e-02  4.38000000e-02  1.87311370e+01
  2.82539370e+00  6.40121700e-01  1.61277800e-01  1.87311370e+01  2.82539370e+00
  6.40121700e-01  1.61277800e-01  1.87311370e+01  2.82539370e+00  6.40121700e-01
  1.61277800e-01  5.48467170e+03  8.25234950e+02  1.88046960e+02  5.29645000e+01
  1.68975700e+01  5.79963530e+00  1.55396160e+01  3.59993360e+00  1.01376180e+00
  1.55396160e+01  3.59993360e+00  1.01376180e+00  2.70005800e-01  2.70005800e-01
  8.00000000e-01  8.45000000e-02  8.45000000e-02  2.51801000e+04  3.78035000e+03
  8.60474000e+02  2.42145000e+02  7.73349000e+01  2.62470000e+01  4.91765000e+02
  1.16984000e+02  3.74153000e+01  1.37834000e+01  5.45215000e+00  2.22588000e+00
  4.91765000e+02  1.16984000e+02  3.74153000e+01  1.37834000e+01  5.45215000e+00
  2.22588000e+00  3.18649000e+00  1.14427000e+00  4.20377000e-01  3.18649000e+00
  1.14427000e+00  4.20377000e-01  1.42657000e-01  1.42657000e-01  7.50000000e-01
  4.83000000e-02  4.83000000e-02  1.87311370e+01  2.82539370e+00  6.40121700e-01
  1.61277800e-01  1.87311370e+01  2.82539370e+00  6.40121700e-01  1.61277800e-01
  3.04752490e+03  4.57369510e+02  1.03948690e+02  2.92101550e+01  9.28666300e+00
  3.16392700e+00  7.86827240e+00  1.88128850e+00  5.44249300e-01  7.86827240e+00
  1.88128850e+00  5.44249300e-01  1.68714400e-01  1.68714400e-01  8.00000000e-01
  4.38000000e-02  4.38000000e-02  3.04752490e+03  4.57369510e+02  1.03948690e+02
  2.92101550e+01  9.28666300e+00  3.16392700e+00  7.86827240e+00  1.88128850e+00
  5.44249300e-01  7.86827240e+00  1.88128850e+00  5.44249300e-01  1.68714400e-01
  1.68714400e-01  8.00000000e-01  4.38000000e-02  4.38000000e-02  1.87311370e+01
  2.82539370e+00  6.40121700e-01  1.61277800e-01  1.87311370e+01  2.82539370e+00
  6.40121700e-01  1.61277800e-01  1.87311370e+01  2.82539370e+00  6.40121700e-01
  1.61277800e-01  1.87311370e+01  2.82539370e+00  6.40121700e-01  1.61277800e-01
  1.87311370e+01  2.82539370e+00  6.40121700e-01  1.61277800e-01
Contraction coefficients                   R   N=         379
  1.83470016e-03  1.40373012e-02  6.88426061e-02  2.32184421e-01  4.67941342e-01
  3.62312032e-01 -1.19332409e-01 -1.60854212e-01  1.14345648e+00  6.89990956e-02
  3.16423980e-01  7.44308252e-01  1.00000000e+00  1.00000000e+00  1.00000000e+00
  1.00000000e+00  1.00000000e+00  1.83479944e-03  1.39949958e-02  6.85869792e-02
  2.32240930e-01  4.69069858e-01  3.60454891e-01 -1.14961023e-01 -1.69118034e-01
  1.14585223e+00  6.75800232e-02  3.23907111e-01  7.40895255e-01  1.00000000e+00
  1.00000000e+00  1.00000000e+00  1.00000000e+00  1.00000000e+00  1.83470016e-03
  1.40373012e-02  6.88426061e-02  2.32184421e-01  4.67941342e-01  3.62312032e-01
 -1.19332409e-01 -1.60854212e-01  1.14345648e+00  6.89990956e-02  3.16423980e-01
  7.44308252e-01  1.00000000e+00  1.00000000e+00  1.00000000e+00  1.00000000e+00
  1.00000000e+00  1.83479944e-03  1.39949958e-02  6.85869792e-02  2.32240930e-01
  4.69069858e-01  3.60454891e-01 -1.14961023e-01 -1.69118034e-01  1.14585223e+00
  6.75800232e-02  3.23907111e-01  7.40895255e-01  1.00000000e+00  1.00000000e+00
  1.00000000e+00  1.00000000e+00  1.00000000e+00  1.83470016e-03  1.40373012e-02
  6.88426061e-02  2.32184421e-01  4.67941342e-01  3.62312032e-01 -1.19332409e-01
 -1.60854212e-01  1.14345648e+00  6.89990956e-02  3.16423980e-01  7.44308252e-01
  1.00000000e+00  1.00000000e+00  1.00000000e+00  1.00000000e+00  1.00000000e+00
  1.83470016e-03  1.40373012e-02  6.88426061e-02  2.32184421e-01  4.67941342e-01
  3.62312032e-01 -1.19332409e-01 -1.60854212e-01  1.14345648e+00  6.89990956e-02
  3.16423980e-01  7.44308252e-01  1.00000000e+00  1.00000000e+00  1.00000000e+00
  1.00000000e+00  1.00000000e+00  1.83470016e-03  1.40373012e-02  6.88426061e-02
  2.32184421e-01  4.67941342e-01  3.62312032e-01 -1.19332409e-01 -1.60854212e-01
  1.14345648e+00  6.89990956e-02  3.16423980e-01  7.44308252e-01  1.00000000e+00
  1.00000000e+00  1.00000000e+00  1.00000000e+00  1.00000000e+00  1.83470016e-03
  1.40373012e-02  6.88426061e-02  2.32184421e-01  4.67941342e-01  3.62312032e-01
 -1.19332409e-01 -1.60854212e-01  1.14345648e+00  6.89990956e-02  3.16423980e-01
  7.44308252e-01  1.00000000e+00  1.00000000e+00  1.00000000e+00  1.00000000e+00
  1.00000000e+00  1.83470016e-03  1.40373012e-02  6.88426061e-02  2.32184421e-01
  4.67941342e-01  3.62312032e-01 -1.19332409e-01 -1.60854212e-01  1.14345648e+00
  6.89990956e-02  3.16423980e-01  7.44308252e-01  1.00000000e+00  1.00000000e+00
  1.00000000e+00  1.00000000e+00  1.00000000e+00  3.34945995e-02  2.34726947e-01
  8.13757318e-01  1.00000000e+00  1.83470016e-03  1.40373012e-02  6.88426061e-02
  2.32184421e-01  4.67941342e-01  3.62312032e-01 -1.19332409e-01 -1.60854212e-01
  1.14345648e+00  6.89990956e-02  3.16423980e-01  7.44308252e-01  1.00000000e+00
  1.00000000e+00  1.00000000e+00  1.00000000e+00  1.00000000e+00  1.83470016e-03
  1.40373012e-02  6.88426061e-02  2.32184421e-01  4.67941342e-01  3.62312032e-01
 -1.19332409e-01 -1.60854212e-01  1.14345648e+00  6.89990956e-02  3.16423980e-01
  7.44308252e-01  1.00000000e+00  1.00000000e+00  1.00000000e+00  1.00000000e+00
  1.00000000e+00  1.83470016e-03  1.40373012e-02  6.88426061e-02  2.32184421e-01
  4.67941342e-01  3.62312032e-01 -1.19332409e-01 -1.60854212e-01  1.14345648e+00
  6.89990956e-02  3.16423980e-01  7.44308252e-01  1.00000000e+00  1.00000000e+00
  1.00000000e+00  1.00000000e+00  1.00000000e+00  1.83470016e-03  1.40373012e-02
  6.88426061e-02  2.32184421e-01  4.67941342e-01  3.62312032e-01 -1.19332409e-01
 -1.60854212e-01  1.14345648e+00  6.89990956e-02  3.16423980e-01  7.44308252e-01
  1.00000000e+00  1.00000000e+00  1.00000000e+00  1.00000000e+00  1.00000000e+00
  1.83470016e-03  1.40373012e-02  6.88426061e-02  2.32184421e-01  4.67941342e-01
  3.62312032e-01 -1.19332409e-01 -1.60854212e-01  1.14345648e+00  6.89990956e-02
  3.16423980e-01  7.44308252e-01  1.00000000e+00  1.00000000e+00  1.00000000e+00
  1.00000000e+00  1.00000000e+00  1.83470016e-03  1.40373012e-02  6.88426061e-02
  2.32184421e-01  4.67941342e-01  3.62312032e-01 -1.19332409e-01 -1.60854212e-01
  1.14345648e+00  6.89990956e-02  3.16423980e-01  7.44308252e-01  1.00000000e+00
  1.00000000e+00  1.00000000e+00  1.00000000e+00  1.00000000e+00  3.34945995e-02
  2.34726947e-01  8.13757318e-01  1.00000000e+00  3.34945995e-02  2.34726947e-01
  8.13757318e-01  1.00000000e+00  3.34945995e-02  2.34726947e-01  8.13757318e-01
  1.00000000e+00  1.83109981e-03  1.39500985e-02  6.84450927e-02  2.32714275e-01
  4.70192950e-01  3.58520862e-01 -1.10777504e-01 -1.48026305e-01  1.13076704e+00
  7.08742995e-02  3.39752798e-01  7.27158595e-01  1.00000000e+00  1.00000000e+00
  1.00000000e+00  1.00000000e+00  1.00000000e+00  1.83300031e-03  1.40340024e-02
  6.90970118e-02  2.37452040e-01  4.83034082e-01  3.39856058e-01 -2.29740199e-03
 -3.07140266e-02 -1.12528097e-01  4.50160390e-02  5.89353510e-01  4.65206403e-01
  3.98940055e-03  3.03180042e-02  1.29880018e-01  3.27951045e-01  4.53527062e-01
  2.52154035e-01 -2.51831288e-01  6.15893150e-02  1.06018542e+00 -1.42990127e-02
  3.23572288e-01  7.43507661e-01  1.00000000e+00  1.00000000e+00  1.00000000e+00
  1.00000000e+00  1.00000000e+00  3.34945995e-02  2.34726947e-01  8.13757318e-01
  1.00000000e+00  3.34945995e-02  2.34726947e-01  8.13757318e-01  1.00000000e+00
  1.83470016e-03  1.40373012e-02  6.88426061e-02  2.32184421e-01  4.67941342e-01
  3.62312032e-01 -1.19332409e-01 -1.60854212e-01  1.14345648e+00  6.89990956e-02
  3.16423980e-01  7.44308252e-01  1.00000000e+00  1.00000000e+00  1.00000000e+00
  1.00000000e+00  1.00000000e+00  1.83470016e-03  1.40373012e-02  6.88426061e-02
  2.32184421e-01  4.67941342e-01  3.62312032e-01 -1.19332409e-01 -1.60854212e-01
  1.14345648e+00  6.89990956e-02  3.16423980e-01  7.44308252e-01  1.00000000e+00
  1.00000000e+00  1.00000000e+00  1.00000000e+00  1.00000000e+00  3.34945995e-02
  2.34726947e-01  8.13757318e-01  1.00000000e+00  3.34945995e-02  2.34726947e-01
  8.13757318e-01  1.00000000e+00  3.34945995e-02  2.34726947e-01  8.13757318e-01
  1.00000000e+00  3.34945995e-02  2.34726947e-01  8.13757318e-01  1.00000000e+00
  3.34945995e-02  2.34726947e-01  8.13757318e-01  1.00000000e+00
Coordinates of each shell                  R   N=         528
 -2.37780793e+00  2.13264292e+00 -1.66023647e+00 -2.37780793e+00  2.13264292e+00
 -1.66023647e+00 -2.37780793e+00  2.13264292e+00 -1.66023647e+00 -2.37780793e+00
  2.13264292e+00 -1.66023647e+00 -2.37780793e+00  2.13264292e+00 -1.66023647e+00
 -2.37780793e+00  2.13264292e+00 -1.66023647e+00 -2.37780793e+00  2.13264292e+00
 -1.66023647e+00 -2.37780793e+00  2.13264292e+00 -1.66023647e+00 -1.52599292e+00
  3.23983832e+00 -3.92168269e+00 -1.52599292e+00  3.23983832e+00 -3.92168269e+00
 -1.52599292e+00  3.23983832e+00 -3.92168269e+00 -1.52599292e+00  3.23983832e+00
 -3.92168269e+00 -1.52599292e+00  3.23983832e+00 -3.92168269e+00 -1.52599292e+00
  3.23983832e+00 -3.92168269e+00 -1.52599292e+00  3.23983832e+00 -3.92168269e+00
 -1.52599292e+00  3.23983832e+00 -3.92168269e+00 -6.00098976e-01  1.99301757e+00
 -6.03732023e+00 -6.00098976e-01  1.99301757e+00 -6.03732023e+00 -6.00098976e-01
  1.99301757e+00 -6.03732023e+00 -6.00098976e-01  1.99301757e+00 -6.03732023e+00
 -6.00098976e-01  1.99301757e+00 -6.03732023e+00 -6.00098976e-01  1.99301757e+00
 -6.03732023e+00 -6.00098976e-01  1.99301757e+00 -6.03732023e+00 -6.00098976e-01
  1.99301757e+00 -6.03732023e+00  1.93538126e+00 -1.16272438e+00 -3.75458956e+00
  1.93538126e+00 -1.16272438e+00 -3.75458956e+00  1.93538126e+00 -1.16272438e+00
 -3.75458956e+00  1.93538126e+00 -1.16272438e+00 -3.75458956e+00  1.93538126e+00
 -1.16272438e+00 -3.75458956e+00  1.93538126e+00 -1.16272438e+00 -3.75458956e+00
  1.93538126e+00 -1.16272438e+00 -3.75458956e+00  1.93538126e+00 -1.16272438e+00
 -3.75458956e+00 -4.39847836e-02 -8.06395110e-01 -5.62817126e+00 -4.39847836e-02
 -8.06395110e-01 -5.62817126e+00 -4.39847836e-02 -8.06395110e-01 -5.62817126e+00
 -4.39847836e-02 -8.06395110e-01 -5.62817126e+00 -4.39847836e-02 -8.06395110e-01
 -5.62817126e+00 -4.39847836e-02 -8.06395110e-01 -5.62817126e+00 -4.39847836e-02
 -8.06395110e-01 -5.62817126e+00 -4.39847836e-02 -8.06395110e-01 -5.62817126e+00
  1.46396331e+00 -7.36150389e-01 -1.40700113e+00  1.46396331e+00 -7.36150389e-01
 -1.40700113e+00  1.46396331e+00 -7.36150389e-01 -1.40700113e+00  1.46396331e+00
 -7.36150389e-01 -1.40700113e+00  1.46396331e+00 -7.36150389e-01 -1.40700113e+00
  1.46396331e+00 -7.36150389e-01 -1.40700113e+00  1.46396331e+00 -7.36150389e-01
 -1.40700113e+00  1.46396331e+00 -7.36150389e-01 -1.40700113e+00 -1.01101017e+00
  1.98441128e-01 -4.22911581e-01 -1.01101017e+00  1.98441128e-01 -4.22911581e-01
 -1.01101017e+00  1.98441128e-01 -4.22911581e-01 -1.01101017e+00  1.98441128e-01
 -4.22911581e-01 -1.01101017e+00  1.98441128e-01 -4.22911581e-01 -1.01101017e+00
  1.98441128e-01 -4.22911581e-01 -1.01101017e+00  1.98441128e-01 -4.22911581e-01
 -1.01101017e+00  1.98441128e-01 -4.22911581e-01 -4.24461212e+00  8.71748338e-02
  2.84203327e+00 -4.24461212e+00  8.71748338e-02  2.84203327e+00 -4.24461212e+00
  8.71748338e-02  2.84203327e+00 -4.24461212e+00  8.71748338e-02  2.84203327e+00
 -4.24461212e+00  8.71748338e-02  2.84203327e+00 -4.24461212e+00  8.71748338e-02
  2.84203327e+00 -4.24461212e+00  8.71748338e-02  2.84203327e+00 -4.24461212e+00
  8.71748338e-02  2.84203327e+00 -2.00115232e+00 -8.18757429e-01  1.82714313e+00
 -2.00115232e+00 -8.18757429e-01  1.82714313e+00 -2.00115232e+00 -8.18757429e-01
  1.82714313e+00 -2.00115232e+00 -8.18757429e-01  1.82714313e+00 -2.00115232e+00
 -8.18757429e-01  1.82714313e+00 -2.00115232e+00 -8.18757429e-01  1.82714313e+00
 -2.00115232e+00 -8.18757429e-01  1.82714313e+00 -2.00115232e+00 -8.18757429e-01
  1.82714313e+00 -9.84252771e-01 -2.31871403e+00  2.78425389e+00 -9.84252771e-01
 -2.31871403e+00  2.78425389e+00  3.55201370e+00 -1.21766463e+00  4.34447771e-01
  3.55201370e+00 -1.21766463e+00  4.34447771e-01  3.55201370e+00 -1.21766463e+00
  4.34447771e-01  3.55201370e+00 -1.21766463e+00  4.34447771e-01  3.55201370e+00
 -1.21766463e+00  4.34447771e-01  3.55201370e+00 -1.21766463e+00  4.34447771e-01
  3.55201370e+00 -1.21766463e+00  4.34447771e-01  3.55201370e+00 -1.21766463e+00
  4.34447771e-01  3.82722698e+00  2.28629636e-01  2.64395039e+00  3.82722698e+00
  2.28629636e-01  2.64395039e+00  3.82722698e+00  2.28629636e-01  2.64395039e+00
  3.82722698e+00  2.28629636e-01  2.64395039e+00  3.82722698e+00  2.28629636e-01
  2.64395039e+00  3.82722698e+00  2.28629636e-01  2.64395039e+00  3.82722698e+00
  2.28629636e-01  2.64395039e+00  3.82722698e+00  2.28629636e-01  2.64395039e+00
  5.84998856e+00 -1.97513556e-01  4.28542610e+00  5.84998856e+00 -1.97513556e-01
  4.28542610e+00  5.84998856e+00 -1.97513556e-01  4.28542610e+00  5.84998856e+00
 -1.97513556e-01  4.28542610e+00  5.84998856e+00 -1.97513556e-01  4.28542610e+00
  5.84998856e+00 -1.97513556e-01  4.28542610e+00  5.84998856e+00 -1.97513556e-01
  4.28542610e+00  5.84998856e+00 -1.97513556e-01  4.28542610e+00  7.61221570e+00
 -2.08978579e+00  3.75438434e+00  7.61221570e+00 -2.08978579e+00  3.75438434e+00
  7.61221570e+00 -2.08978579e+00  3.75438434e+00  7.61221570e+00 -2.08978579e+00
  3.75438434e+00  7.61221570e+00 -2.08978579e+00  3.75438434e+00  7.61221570e+00
 -2.08978579e+00  3.75438434e+00  7.61221570e+00 -2.08978579e+00  3.75438434e+00
  7.61221570e+00 -2.08978579e+00  3.75438434e+00  7.35285404e+00 -3.54198629e+00
  1.55973840e+00  7.35285404e+00 -3.54198629e+00  1.55973840e+00  7.35285404e+00
 -3.54198629e+00  1.55973840e+00  7.35285404e+00 -3.54198629e+00  1.55973840e+00
  7.35285404e+00 -3.54198629e+00  1.55973840e+00  7.35285404e+00 -3.54198629e+00
  1.55973840e+00  7.35285404e+00 -3.54198629e+00  1.55973840e+00  7.35285404e+00
 -3.54198629e+00  1.55973840e+00  5.34764586e+00 -3.10329748e+00 -9.11147368e-02
  5.34764586e+00 -3.10329748e+00 -9.11147368e-02  5.34764586e+00 -3.10329748e+00
 -9.11147368e-02  5.34764586e+00 -3.10329748e+00 -9.11147368e-02  5.34764586e+00
 -3.10329748e+00 -9.11147368e-02  5.34764586e+00 -3.10329748e+00 -9.11147368e-02
  5.34764586e+00 -3.10329748e+00 -9.11147368e-02  5.34764586e+00 -3.10329748e+00
 -9.11147368e-02  6.04727977e+00  9.52751880e-01  5.97563237e+00  6.04727977e+00
  9.52751880e-01  5.97563237e+00  9.17804735e+00 -2.43100964e+00  5.03938274e+00
  9.17804735e+00 -2.43100964e+00  5.03938274e+00  8.71601937e+00 -5.01902543e+00
  1.13584629e+00  8.71601937e+00 -5.01902543e+00  1.13584629e+00 -2.81908627e-01
  3.10569065e+00 -8.02941362e+00 -2.81908627e-01  3.10569065e+00 -8.02941362e+00
 -2.81908627e-01  3.10569065e+00 -8.02941362e+00 -2.81908627e-01  3.10569065e+00
 -8.02941362e+00 -2.81908627e-01  3.10569065e+00 -8.02941362e+00 -2.81908627e-01