Generated by Psi4
     FORCE                           RHF                       TESTBAS
Number of atoms                            I               24
Charge                                     I                0
Multiplicity                               I                1
Number of electrons                        I               82
Number of alpha electrons                  I               41
Number of beta electrons                   I               41
Number of basis functions                  I              235
Number of independent functions            I              235
Atomic numbers                             I   N=          24
           6           6           6           7           6           6
           6           6           6           1           1           1
           1           1           8           1           6           1
           1           1           1           1           1           1
Nuclear charges                            R   N=          24
  6.00000000e+00  6.00000000e+00  6.00000000e+00  7.00000000e+00  6.00000000e+00
  6.00000000e+00  6.00000000e+00  6.00000000e+00  6.00000000e+00  1.00000000e+00
  1.00000000e+00  1.00000000e+00  1.00000000e+00  1.00000000e+00  8.00000000e+00
  1.00000000e+00  6.00000000e+00  1.00000000e+00  1.00000000e+00  1.00000000e+00
  1.00000000e+00  1.00000000e+00  1.00000000e+00  1.00000000e+00
Current cartesian coordinates              R   N=          72
  3.08135867e-01  3.42371159e-01 -9.40952299e-01 -2.03951303e+00  9.06854275e-01
  6.04490509e-01 -2.17654061e+00 -5.52795701e-01  3.14647170e+00 -4.33334716e+00
  1.98474845e-01  4.71130715e+00  2.69226996e+00  1.18809866e+00 -1.36958689e-01
  4.85706125e+00  6.39794335e-01 -1.54222761e+00  4.67458229e+00 -7.60318135e-01
 -3.77763129e+00  2.31085919e+00 -1.59988992e+00 -4.60099647e+00  1.45983139e-01
 -1.04425597e+00 -3.19196105e+00  2.84001577e+00  2.29548071e+00  1.58654111e+00
 -1.69055628e+00 -1.69666381e+00 -3.84909579e+00  6.68918681e+00  1.30706604e+00
 -8.94329641e-01  6.36083822e+00 -1.18351187e+00 -4.87176000e+00  2.14728893e+00
 -2.67628349e+00 -6.34333813e+00 -2.17682423e+00  3.53850245e+00  1.27378596e+00
 -3.72168972e+00  3.95541776e-01 -5.14550801e-01 -2.22911882e+00 -3.41621956e+00
  2.75555711e+00 -4.65569663e-01 -5.35095825e-02  4.21136645e+00 -3.89426266e+00
 -3.98645262e+00  1.65177737e+00 -2.33182103e+00 -4.36084579e+00  4.59254707e+00
 -5.46910275e-01 -4.08603123e+00  1.75689698e+00 -1.96396212e+00  4.54195948e+00
 -2.45192763e-01 -5.98586153e+00 -3.74390033e-01  3.89875872e+00 -4.40847409e+00
  2.11739225e+00  4.83846955e+00
Integer atomic weights                     I   N=          24
          12          12          12          14          12          12
          12          12          12           1           1           1
           1           1          15           1          12           1
           1           1           1           1           1           1
Real atomic weights                        R   N=          24
  1.20000000e+01  1.20000000e+01  1.20000000e+01  1.40030740e+01  1.20000000e+01
  1.20000000e+01  1.20000000e+01  1.20000000e+01  1.20000000e+01  1.00782503e+00
  1.00782503e+00  1.00782503e+00  1.00782503e+00  1.00782503e+00  1.59949146e+01
  1.00782503e+00  1.20000000e+01  1.00782503e+00  1.00782503e+00  1.00782503e+00
  1.00782503e+00  1.00782503e+00  1.00782503e+00  1.00782503e+00
Number of primitive shells                 I              239
Number of contracted shells                I              114
Pure/Cartesian d shells                    I                1
Pure/Cartesian f shells                    I                1
Highest angular momentum                   I                2
Largest degree of contraction              I                6
Shell types                                I   N=         114
           0           0           1           0           1           2
           0           1           0           0           1           0
           1           2           0           1           0           0
           1           0           1           2           0           1
           0           0           1           0           1           2
           0           1           0           0           1           0
           1           2           0           1           0           0
           1           0           1           2           0           1
           0           0           1           0           1           2
           0           1           0           0           1           0
           1           2           0           1           0           0
           1           0           1           2           0           1
           0           0           0           0           0           0
           0           0           0           0           0           0
           1           0           1           2           0           1
           0           0           0           0           1           0
           1           2           0           1           0           0
           0           0           0           0           0           0
           0           0           0           0           0           0
Number of primitives per shell             I   N=         114
           6           3           3           1           1           1
           1           1           6           3           3           1
           1           1           1           1           6           3
           3           1           1           1           1           1
           6           3           3           1           1           1
           1           1           6           3           3           1
           1           1           1           1           6           3
           3           1           1           1           1           1
           6           3           3           1           1           1
           1           1           6           3           3           1
           1           1           1           1           6           3
           3           1           1           1           1           1
           3           1           3           1           3           1
           3           1           3           1           6           3
           3           1           1           1           1           1
           3           1           6           3           3           1
           1           1           1           1           3           1
           3           1           3           1           3           1
           3           1           3           1           3           1
Shell to atom map                          I   N=         114
           1           1           1           1           1           1
           1           1           2           2           2           2
           2           2           2           2           3           3
           3           3           3           3           3           3
           4           4           4           4           4           4
           4           4           5           5           5           5
           5           5           5           5           6           6
           6           6           6           6           6           6
           7           7           7           7           7           7
           7           7           8           8           8           8
           8           8           8           8           9           9
           9           9           9           9           9           9
          10          10          11          11          12          12
          13          13          14          14          15          15
          15          15          15          15          15          15
          16          16          17          17          17          17
          17          17          17          17          18          18
          19          19          20          20          21          21
          22          22          23          23          24          24
Primitive exponents                        R   N=         239
  3.04752490e+03  4.57369510e+02  1.03948690e+02  2.92101550e+01  9.28666300e+00
  3.16392700e+00  7.86827240e+00  1.88128850e+00  5.44249300e-01  7.86827240e+00
  1.88128850e+00  5.44249300e-01  1.68714400e-01  1.68714400e-01  8.00000000e-01
  4.38000000e-02  4.38000000e-02  3.04752490e+03  4.57369510e+02  1.03948690e+02
  2.92101550e+01  9.28666300e+00  3.16392700e+00  7.86827240e+00  1.88128850e+00
  5.44249300e-01  7.86827240e+00  1.88128850e+00  5.44249300e-01  1.68714400e-01
  1.68714400e-01  8.00000000e-01  4.38000000e-02  4.38000000e-02  3.04752490e+03
  4.57369510e+02  1.03948690e+02  2.92101550e+01  9.28666300e+00  3.16392700e+00
  7.86827240e+00  1.88128850e+00  5.44249300e-01  7.86827240e+00  1.88128850e+00
  5.44249300e-01  1.68714400e-01  1.68714400e-01  8.00000000e-01  4.38000000e-02
  4.38000000e-02  4.17351100e+03  6.27457900e+02  1.42902100e+02  4.02343300e+01
  1.28202100e+01  4.39043700e+00  1.16263580e+01  2.71628000e+00  7.72218000e-01
  1.16263580e+01  2.71628000e+00  7.72218000e-01  2.12031300e-01  2.12031300e-01
  8.00000000e-01  6.39000000e-02  6.39000000e-02  3.04752490e+03  4.57369510e+02
  1.03948690e+02  2.92101550e+01  9.28666300e+00  3.16392700e+00  7.86827240e+00
  1.88128850e+00  5.44249300e-01  7.86827240e+00  1.88128850e+00  5.44249300e-01
  1.68714400e-01  1.68714400e-01  8.00000000e-01  4.38000000e-02  4.38000000e-02
  3.04752490e+03  4.57369510e+02  1.03948690e+02  2.92101550e+01  9.28666300e+00
  3.16392700e+00  7.86827240e+00  1.88128850e+00  5.44249300e-01  7.86827240e+00
  1.88128850e+00  5.44249300e-01  1.68714400e-01  1.68714400e-01  8.00000000e-01
  4.38000000e-02  4.38000000e-02  3.04752490e+03  4.57369510e+02  1.03948690e+02
  2.92101550e+01  9.28666300e+00  3.16392700e+00  7.86827240e+00  1.88128850e+00
  5.44249300e-01  7.86827240e+00  1.88128850e+00  5.44249300e-01  1.68714400e-01
  1.68714400e-01  8.00000000e-01  4.38000000e-02  4.38000000e-02  3.04752490e+03
  4.57369510e+02  1.03948690e+02  2.92101550e+01  9.28666300e+00  3.16392700e+00
  7.86827240e+00  1.88128850e+00  5.44249300e-01  7.86827240e+00  1.88128850e+00
  5.44249300e-01  1.68714400e-01  1.68714400e-01  8.00000000e-01  4.38000000e-02
  4.38000000e-02  3.04752490e+03  4.57369510e+02  1.03948690e+02  2.92101550e+01
  9.28666300e+00  3.16392700e+00  7.86827240e+00  1.88128850e+00  5.44249300e-01
  7.86827240e+00  1.88128850e+00  5.44249300e-01  1.68714400e-01  1.68714400e-01
  8.00000000e-01  4.38000000e-02  4.38000000e-02  1.87311370e+01  2.82539370e+00
  6.40121700e-01  1.61277800e-01  1.87311370e+01  2.82539370e+00  6.40121700e-01
  1.61277800e-01  1.87311370e+01  2.82539370e+00  6.40121700e-01  1.61277800e-01
  1.87311370e+01  2.82539370e+00  6.40121700e-01  1.61277800e-01  1.87311370e+01
  2.82539370e+00  6.40121700e-01  1.61277800e-01  5.48467170e+03  8.25234950e+02
  1.88046960e+02  5.29645000e+01  1.68975700e+01  5.79963530e+00  1.55396160e+01
  3.59993360e+00  1.01376180e+00  1.55396160e+01  3.59993360e+00  1.01376180e+00
  2.70005800e-01  2.70005800e-01  8.00000000e-01  8.45000000e-02  8.45000000e-02
  1.87311370e+01  2.82539370e+00  6.40121700e-01  1.61277800e-01  3.04752490e+03
  4.57369510e+02  1.03948690e+02  2.92101550e+01  9.28666300e+00  3.16392700e+00
  7.86827240e+00  1.88128850e+00  5.44249300e-01  7.86827240e+00  1.88128850e+00
  5.44249300e-01  1.68714400e-01  1.68714400e-01  8.00000000e-01  4.38000000e-02
  4.38000000e-02  1.87311370e+01  2.82539370e+00  6.40121700e-01  1.61277800e-01
  1.87311370e+01  2.82539370e+00  6.40121700e-01  1.61277800e-01  1.87311370e+01
  2.82539370e+00  6.40121700e-01  1.61277800e-01  1.87311370e+01  2.82539370e+00
  6.40121700e-01  1.61277800e-01  1.87311370e+01  2.82539370e+00  6.40121700e-01
  1.61277800e-01  1.87311370e+01  2.82539370e+00  6.40121700e-01  1.61277800e-01
  1.87311370e+01  2.82539370e+00  6.40121700e-01  1.61277800e-01
Contraction coefficients                   R   N=         239
  1.83470016e-03  1.40373012e-02  6.88426061e-02  2.32184421e-01  4.67941342e-01
  3.62312032e-01 -1.19332409e-01 -1.60854212e-01  1.14345648e+00  6.89990956e-02
  3.16423980e-01  7.44308252e-01  1.00000000e+00  1.00000000e+00  1.00000000e+00
  1.00000000e+00  1.00000000e+00  1.83470016e-03  1.40373012e-02  6.88426061e-02
  2.32184421e-01  4.67941342e-01  3.62312032e-01 -1.19332409e-01 -1.60854212e-01
  1.14345648e+00  6.89990956e-02  3.16423980e-01  7.44308252e-01  1.00000000e+00
  1.00000000e+00  1.00000000e+00  1.00000000e+00  1.00000000e+00  1.83470016e-03
  1.40373012e-02  6.88426061e-02  2.32184421e-01  4.67941342e-01  3.62312032e-01
 -1.19332409e-01 -1.60854212e-01  1.14345648e+00  6.89990956e-02  3.16423980e-01
  7.44308252e-01  1.00000000e+00  1.00000000e+00  1.00000000e+00  1.00000000e+00
  1.00000000e+00  1.83479944e-03  1.39949958e-02  6.85869792e-02  2.32240930e-01
  4.69069858e-01  3.60454891e-01 -1.14961023e-01 -1.69118034e-01  1.14585223e+00
  6.75800232e-02  3.23907111e-01  7.40895255e-01  1.00000000e+00  1.00000000e+00
  1.00000000e+00  1.00000000e+00  1.00000000e+00  1.83470016e-03  1.40373012e-02
  6.88426061e-02  2.32184421e-01  4.67941342e-01  3.62312032e-01 -1.19332409e-01
 -1.60854212e-01  1.14345648e+00  6.89990956e-02  3.16423980e-01  7.44308252e-01
  1.00000000e+00  1.00000000e+00  1.00000000e+00  1.00000000e+00  1.00000000e+00
  1.83470016e-03  1.40373012e-02  6.88426061e-02  2.32184421e-01  4.67941342e-01
  3.62312032e-01 -1.19332409e-01 -1.60854212e-01  1.14345648e+00  6.89990956e-02
  3.16423980e-01  7.44308252e-01  1.00000000e+00  1.00000000e+00  1.00000000e+00
  1.00000000e+00  1.00000000e+00  1.83470016e-03  1.40373012e-02  6.88426061e-02
  2.32184421e-01  4.67941342e-01  3.62312032e-01 -1.19332409e-01 -1.60854212e-01
  1.14345648e+00  6.89990956e-02  3.16423980e-01  7.44308252e-01  1.00000000e+00
  1.00000000e+00  1.00000000e+00  1.00000000e+00  1.00000000e+00  1.83470016e-03
  1.40373012e-02  6.88426061e-02  2.32184421e-01  4.67941342e-01  3.62312032e-01
 -1.19332409e-01 -1.60854212e-01  1.14345648e+00  6.89990956e-02  3.16423980e-01
  7.44308252e-01  1.00000000e+00  1.00000000e+00  1.00000000e+00  1.00000000e+00
  1.00000000e+00  1.83470016e-03  1.40373012e-02  6.88426061e-02  2.32184421e-01
  4.67941342e-01  3.62312032e-01 -1.19332409e-01 -1.60854212e-01  1.14345648e+00
  6.89990956e-02  3.16423980e-01  7.44308252e-01  1.00000000e+00  1.00000000e+00
  1.00000000e+00  1.00000000e+00  1.00000000e+00  3.34945995e-02  2.34726947e-01
  8.13757318e-01  1.00000000e+00  3.34945995e-02  2.34726947e-01  8.13757318e-01
  1.00000000e+00  3.34945995e-02  2.34726947e-01  8.13757318e-01  1.00000000e+00
  3.34945995e-02  2.34726947e-01  8.13757318e-01  1.00000000e+00  3.34945995e-02
  2.34726947e-01  8.13757318e-01  1.00000000e+00  1.83109981e-03  1.39500985e-02
  6.84450927e-02  2.32714275e-01  4.70192950e-01  3.58520862e-01 -1.10777504e-01
 -1.48026305e-01  1.13076704e+00  7.08742995e-02  3.39752798e-01  7.27158595e-01
  1.00000000e+00  1.00000000e+00  1.00000000e+00  1.00000000e+00  1.00000000e+00
  3.34945995e-02  2.34726947e-01  8.13757318e-01  1.00000000e+00  1.83470016e-03
  1.40373012e-02  6.88426061e-02  2.32184421e-01  4.67941342e-01  3.62312032e-01
 -1.19332409e-01 -1.60854212e-01  1.14345648e+00  6.89990956e-02  3.16423980e-01
  7.44308252e-01  1.00000000e+00  1.00000000e+00  1.00000000e+00  1.00000000e+00
  1.00000000e+00  3.34945995e-02  2.34726947e-01  8.13757318e-01  1.00000000e+00
  3.34945995e-02  2.34726947e-01  8.13757318e-01  1.00000000e+00  3.34945995e-02
  2.34726947e-01  8.13757318e-01  1.00000000e+00  3.34945995e-02  2.34726947e-01
  8.13757318e-01  1.00000000e+00  3.34945995e-02  2.34726947e-01  8.13757318e-01
  1.00000000e+00  3.34945995e-02  2.34726947e-01  8.13757318e-01  1.00000000e+00
  3.34945995e-02  2.34726947e-01  8.13757318e-01  1.00000000e+00
Coordinates of each shell                  R   N=         342
  3.08135867e-01  3.42371159e-01 -9.40952299e-01  3.08135867e-01  3.42371159e-01
 -9.40952299e-01  3.08135867e-01  3.42371159e-01 -9.40952299e-01  3.08135867e-01
  3.42371159e-01 -9.40952299e-01  3.08135867e-01  3.42371159e-01 -9.40952299e-01
  3.08135867e-01  3.42371159e-01 -9.40952299e-01  3.08135867e-01  3.42371159e-01
 -9.40952299e-01  3.08135867e-01  3.42371159e-01 -9.40952299e-01 -2.03951303e+00
  9.06854275e-01  6.04490509e-01 -2.03951303e+00  9.06854275e-01  6.04490509e-01
 -2.03951303e+00  9.06854275e-01  6.04490509e-01 -2.03951303e+00  9.06854275e-01
  6.04490509e-01 -2.03951303e+00  9.06854275e-01  6.04490509e-01 -2.03951303e+00
  9.06854275e-01  6.04490509e-01 -2.03951303e+00  9.06854275e-01  6.04490509e-01
 -2.03951303e+00  9.06854275e-01  6.04490509e-01 -2.17654061e+00 -5.52795701e-01
  3.14647170e+00 -2.17654061e+00 -5.52795701e-01  3.14647170e+00 -2.17654061e+00
 -5.52795701e-01  3.14647170e+00 -2.17654061e+00 -5.52795701e-01  3.14647170e+00
 -2.17654061e+00 -5.52795701e-01  3.14647170e+00 -2.17654061e+00 -5.52795701e-01
  3.14647170e+00 -2.17654061e+00 -5.52795701e-01  3.14647170e+00 -2.17654061e+00
 -5.52795701e-01  3.14647170e+00 -4.33334716e+00  1.98474845e-01  4.71130715e+00
 -4.33334716e+00  1.98474845e-01  4.71130715e+00 -4.33334716e+00  1.98474845e-01
  4.71130715e+00 -4.33334716e+00  1.98474845e-01  4.71130715e+00 -4.33334716e+00
  1.98474845e-01  4.71130715e+00 -4.33334716e+00  1.98474845e-01  4.71130715e+00
 -4.33334716e+00  1.98474845e-01  4.71130715e+00 -4.33334716e+00  1.98474845e-01
  4.71130715e+00  2.69226996e+00  1.18809866e+00 -1.36958689e-01  2.69226996e+00
  1.18809866e+00 -1.36958689e-01  2.69226996e+00  1.18809866e+00 -1.36958689e-01
  2.69226996e+00  1.18809866e+00 -1.36958689e-01  2.69226996e+00  1.18809866e+00
 -1.36958689e-01  2.69226996e+00  1.18809866e+00 -1.36958689e-01  2.69226996e+00
  1.18809866e+00 -1.36958689e-01  2.69226996e+00  1.18809866e+00 -1.36958689e-01
  4.85706125e+00  6.39794335e-01 -1.54222761e+00  4.85706125e+00  6.39794335e-01
 -1.54222761e+00  4.85706125e+00  6.39794335e-01 -1.54222761e+00  4.85706125e+00
  6.39794335e-01 -1.54222761e+00  4.85706125e+00  6.39794335e-01 -1.54222761e+00
  4.85706125e+00  6.39794335e-01 -1.54222761e+00  4.85706125e+00  6.39794335e-01
 -1.54222761e+00  4.85706125e+00  6.39794335e-01 -1.54222761e+00  4.67458229e+00
 -7.60318135e-01 -3.77763129e+00  4.67458229e+00 -7.60318135e-01 -3.77763129e+00
  4.67458229e+00 -7.60318135e-01 -3.77763129e+00  4.67458229e+00 -7.60318135e-01
 -3.77763129e+00  4.67458229e+00 -7.60318135e-01 -3.77763129e+00  4.67458229e+00
 -7.60318135e-01 -3.77763129e+00  4.67458229e+00 -7.60318135e-01 -3.77763129e+00
  4.67458229e+00 -7.60318135e-01 -3.77763129e+00  2.31085919e+00 -1.59988992e+00
 -4.60099647e+00  2.31085919e+00 -1.59988992e+00 -4.60099647e+00  2.31085919e+00
 -1.59988992e+00 -4.60099647e+00  2.31085919e+00 -1.59988992e+00 -4.60099647e+00
  2.31085919e+00 -1.59988992e+00 -4.60099647e+00  2.31085919e+00 -1.59988992e+00
 -4.60099647e+00  2.31085919e+00 -1.59988992e+00 -4.60099647e+00  2.31085919e+00
 -1.59988992e+00 -4.60099647e+00  1.45983139e-01 -1.04425597e+00 -3.19196105e+00
  1.45983139e-01 -1.04425597e+00 -3.19196105e+00  1.45983139e-01 -1.04425597e+00
 -3.19196105e+00  1.45983139e-01 -1.04425597e+00 -3.19196105e+00  1.45983139e-01
 -1.04425597e+00 -3.19196105e+00  1.45983139e-01 -1.04425597e+00 -3.19196105e+00
  1.45983139e-01 -1.04425597e+00 -3.19196105e+00  1.45983139e-01 -1.04425597e+00
 -3.19196105e+00  2.84001577e+00  2.29548071e+00  1.58654111e+00  2.84001577e+00
  2.29548071e+00  1.58654111e+00 -1.69055628e+00 -1.69666381e+00 -3.84909579e+00
 -1.69055628e+00 -1.69666381e+00 -3.84909579e+00  6.68918681e+00  1.30706604e+00
 -8.94329641e-01  6.68918681e+00  1.30706604e+00 -8.94329641e-01  6.36083822e+00
 -1.18351187e+00 -4.87176000e+00  6.36083822e+00 -1.18351187e+00 -4.87176000e+00
  2.14728893e+00 -2.67628349e+00 -6.34333813e+00  2.14728893e+00 -2.67628349e+00
 -6.34333813e+00 -2.17682423e+00  3.53850245e+00  1.27378596e+00 -2.17682423e+00
  3.53850245e+00  1.27378596e+00 -2.17682423e+00  3.53850245e+00  1.27378596e+00
 -2.17682423e+00  3.53850245e+00  1.27378596e+00 -2.17682423e+00  3.53850245e+00
  1.27378596e+00 -2.17682423e+00  3.53850245e+00  1.27378596e+00 -2.17682423e+00
  3.53850245e+00  1.27378596e+00 -2.17682423e+00  3.53850245e+00  1.27378596e+00
 -3.72168972e+00  3.95541776e-01 -5.14550801e-01 -3.72168972e+00  3.95541776e-01
 -5.14550801e-01 -2.22911882e+00 -3.41621956e+00  2.75555711e+00 -2.22911882e+00
 -3.41621956e+00  2.75555711e+00 -2.22911882e+00 -3.41621956e+00  2.75555711e+00
 -2.22911882e+00 -3.41621956e+00  2.75555711e+00 -2.22911882e+00 -3.41621956e+00
  2.75555711e+00 -2.22911882e+00 -3.41621956e+00  2.75555711e+00 -2.22911882e+00
 -3.41621956e+00  2.75555711e+00 -2.22911882e+00 -3.41621956e+00  2.75555711e+00
 -4.65569663e-01 -5.35095825e-02  4.21136645e+00 -4.65569663e-01 -5.35095825e-02
  4.21136645e+00 -3.89426266e+00 -3.98645262e+00  1.65177737e+00 -3.89426266e+00
 -3.98645262e+00  1.65177737e+00 -2.33182103e+00 -4.36084579e+00  4.59254707e+00
 -2.33182103e+00 -4.36084579e+00  4.59254707e+00 -5.46910275e-01 -4.08603123e+00
  1.75689698e+00 -5.46910275e-01 -4.08603123e+00  1.75689698e+00 -1.96396212e+00
  4.54195948e+00 -2.45192763e-01 -1.96396212e+00  4.54195948e+00 -2.45192763e-01
 -5.98586153e+00 -3.74390033e-01  3.89875872e+00 -5.98586153e+00 -3.74390033e-01
  3.89875872e+00 -4.40847409e+00  2.11739225e+00  4.83846955e+00 -4.40847409e+00
  2.11739225e+00  4.83846955e+00
Total Energy                               R     -4.807721730237716e+02
Alpha Orbital Energies                     R   N=         235
 -1.91656704e+01 -1.43155874e+01 -1.02477226e+01 -1.02193641e+01 -1.02070392e+01
 -1.02040720e+01 -1.02034632e+01 -1.02033355e+01 -1.02027551e+01 -1.02007717e+01
 -1.01783256e+01 -1.03389503e+00 -8.86181615e-01 -8.65205227e-01 -7.80460770e-01
 -7.55824555e-01 -7.35783871e-01 -6.82293643e-01 -6.20120561e-01 -6.09339674e-01
 -5.77161548e-01 -5.34455365e-01 -5.17216042e-01 -4.83825078e-01 -4.74556168e-01
 -4.64119243e-01 -4.50474319e-01 -4.39929369e-01 -4.29899180e-01 -4.14814578e-01
 -3.86051540e-01 -3.75746832e-01 -3.72487931e-01 -3.60453974e-01 -3.55111520e-01
 -3.52190418e-01 -3.35215721e-01 -2.94052342e-01 -2.65359024e-01 -2.61813810e-01
 -2.33316367e-01 -2.49264295e-02 -2.06590469e-02 -3.83438063e-03  8.77363775e-03
  1.53897567e-02  2.16133983e-02  3.33464231e-02  3.68871812e-02  4.07312066e-02
  5.56802076e-02  6.24707756e-02  6.61853892e-02  6.92379715e-02  7.59651168e-02
  8.81091605e-02  9.43785481e-02  9.85797202e-02  1.09231685e-01  1.14897409e-01
  1.18627329e-01  1.20510555e-01  1.27262189e-01  1.30870660e-01  1.38438399e-01
  1.42349548e-01  1.49114500e-01  1.52808856e-01  1.58026132e-01  1.66192439e-01
  1.74368950e-01  1.78035516e-01  1.81584562e-01  1.87612954e-01  1.94926244e-01
  1.97771156e-01  2.05575775e-01  2.07410298e-01  2.11464425e-01  2.17486766e-01
  2.19768407e-01  2.33576096e-01  2.36109941e-01  2.39711686e-01  2.41399495e-01
  2.48689985e-01  2.52476706e-01  2.56811654e-01  2.61849531e-01  2.65196518e-01
  2.73470842e-01  2.80585064e-01  2.84449514e-01  2.98991511e-01  2.99363744e-01
  3.08240640e-01  3.10064184e-01  3.30545971e-01  3.38877897e-01  3.44525168e-01
  3.47359593e-01  3.58186347e-01  3.67305003e-01  3.74041190e-01  3.87644026e-01
  3.94369069e-01  4.00957997e-01  4.11172708e-01  4.33617546e-01  4.62003335e-01
  5.66491983e-01  6.01771230e-01  6.30516792e-01  6.44286186e-01  6.71618584e-01
  6.79606772e-01  6.82706124e-01  6.90702869e-01  7.09313865e-01  7.23056030e-01
  7.35396350e-01  7.40511844e-01  7.42909204e-01  7.48872658e-01  7.71447772e-01
  7.85562697e-01  7.95479868e-01  8.02877851e-01  8.18306983e-01  8.30454943e-01
  8.48416205e-01  8.80020119e-01  8.96811932e-01  9.24891310e-01  9.32271395e-01
  9.55293471e-01  9.63524595e-01  9.71170070e-01  9.89044976e-01  9.96879314e-01
  1.00836596e+00  1.02027161e+00  1.02917117e+00  1.04536169e+00  1.06231853e+00
  1.07424923e+00  1.07941774e+00  1.09515295e+00  1.10287109e+00  1.12906051e+00
  1.14559652e+00  1.16669612e+00  1.17612088e+00  1.19064173e+00  1.19988714e+00
  1.22045236e+00  1.23723124e+00  1.26137745e+00  1.27033734e+00  1.28533187e+00
  1.34782850e+00  1.36880829e+00  1.39640601e+00  1.41903115e+00  1.44895185e+00
  1.45610151e+00  1.47462647e+00  1.48676697e+00  1.49760363e+00  1.50499764e+00
  1.52175630e+00  1.55024756e+00  1.62102651e+00  1.63686965e+00  1.66350120e+00
  1.69739823e+00  1.74359766e+00  1.80552200e+00  1.82029412e+00  1.82223733e+00
  1.83461470e+00  1.89856495e+00  1.91470235e+00  1.92598498e+00  1.95694827e+00
  1.96578444e+00  1.97779055e+00  2.00158480e+00  2.01871557e+00  2.05824882e+00
  2.07931398e+00  2.10689069e+00  2.11368433e+00  2.13529079e+00  2.15241262e+00
  2.15447271e+00  2.18821287e+00  2.21348334e+00  2.22229235e+00  2.25532319e+00
  2.28696584e+00  2.28958303e+00  2.30168538e+00  2.30689594e+00  2.35948825e+00
  2.42272781e+00  2.48607122e+00  2.52434971e+00  2.53582240e+00  2.58374653e+00
  2.60867863e+00  2.62224590e+00  2.63188805e+00  2.64715911e+00  2.72612251e+00
  2.74864529e+00  2.75690375e+00  2.76309756e+00  2.81147054e+00  2.87112307e+00
  2.95526526e+00  3.01209559e+00  3.08703792e+00  3.39401699e+00  3.99691920e+00
  4.19830245e+00  4.23954974e+00  4.24934208e+00  4.31230309e+00  4.33189908e+00
  4.38947140e+00  4.42009164e+00  4.51719778e+00  4.65181606e+00  4.71968082e+00
Alpha MO coefficients                      R   N=       55225
 -1.30605177e-05 -1.12937692e-04  1.38498507e-05  1.26698710e-05 -1.46458133e-05
  3.50294209e-04 -3.88671140e-04 -1.26589712e-04 -1.15917260e-04 -1.03093562e-05
  4.01674780e-05 -1.81140208e-05 -2.80770439e-05 -1.47436818e-05  3.26014554e-05
  2.28643683e-02 -1.72862466e-02 -1.19896253e-02 -1.46051225e-02  3.91940882e-05
  8.16090533e-05 -5.12732284e-06 -2.75457472e-04 -1.20850952e-04 -1.02793753e-05
  3.79718325e-05 -1.66496681e-04  5.68007179e-04  4.81761176e-05 -4.43329052e-04
  4.10502108e-05  2.53700432e-05  1.49728795e-05 -1.19814993e-04 -4.81724890e-02
 -6.43496077e-03  1.92608935e-03 -4.08731622e-03 -1.25872763e-05 -1.09736178e-04
 -3.74315474e-06 -3.49308508e-05  4.04085291e-05 -2.26389996e-04  1.21097380e-04
 -4.70028873e-05 -9.21369240e-06 -2.91622243e-05  6.23686743e-05 -3.48172512e-05
 -6.33962952e-06  9.40171648e-06 -3.42130714e-05  3.07915909e-02  2.73391888e-04
  1.58513556e-04 -5.57537507e-03 -2.37400104e-05 -6.85033699e-05 -5.63976367e-06
 -2.94390332e-05  2.65288329e-05  5.74513146e-04  4.73474879e-05  2.77821497e-05
 -3.32008084e-05 -6.33309856e-05 -4.20029693e-05 -7.25702210e-05 -3.12551125e-05
 -1.23916154e-05  3.16349992e-05 -2.26153599e-03 -8.57645116e-05  2.49157663e-04
  7.72049698e-04 -1.79834602e-05 -4.59257116e-05  1.28571159e-05  8.57480429e-06
 -2.13893233e-05  6.02274066e-04 -2.49352315e-04 -1.40525942e-04  8.01621115e-05
 -4.65230668e-05 -4.02299236e-05 -2.97596892e-05  3.01546063e-05  2.41046819e-05
 -7.68313981e-07  1.84292014e-02 -1.67604150e-02  2.61250300e-04  3.15404410e-03
 -1.49071640e-06 -1.02796899e-05 -1.77317762e-06 -4.09723884e-06  4.62509385e-06
  5.84133699e-05 -4.43031759e-05  6.64011660e-05  1.99994967e-05  1.10500430e-05
 -3.50751202e-06 -8.09375419e-07 -1.08735542e-05 -6.26010337e-06  2.60692035e-06
  1.25830141e-02 -3.59917218e-03  2.60441453e-03  5.55853986e-03 -8.25304681e-07
 -2.72085559e-06 -1.51440818e-06  4.51438439e-08  2.15585714e-06  4.87246314e-05
  4.62490219e-05 -1.05281718e-05  2.19084227e-06 -3.67340251e-06 -1.74890184e-06
  1.46683707e-06 -4.96423878e-07  1.60262869e-07  4.06358398e-07 -1.64010446e-03
  2.86486242e-03  2.20566477e-03  2.91030128e-03 -2.12910340e-06 -1.19994336e-05
  2.47448069e-06 -5.11605644e-06  4.36022689e-06  1.11717475e-04 -5.00619602e-05
  3.61829334e-05  3.69990061e-05  1.30679203e-06 -2.54330594e-06 -8.22747898e-07
  1.22512564e-07 -3.44495623e-06  2.63738776e-06 -2.76182467e-04  5.59076682e-03
  1.03528376e-03 -1.40551333e-05  3.79495250e-06  1.53407534e-05 -6.42371689e-07
 -1.08883751e-05 -7.92535965e-06 -3.42904812e-04  1.52334242e-05  2.76762882e-05
 -4.23948083e-05  2.98505810e-06  1.47837332e-05 -6.98101897e-06  3.34129446e-06
  5.47764633e-07 -1.94893327e-06 -3.08240317e-02  4.21823244e-03 -6.57692776e-03
 -1.09502188e-02 -4.20328481e-05  5.35635469e-05 -3.43749209e-06  1.08463745e-04
 -2.76564962e-06  2.31622747e-05 -4.06250942e-06 -2.51539631e-05 -1.36604962e-06
  1.78820818e-05 -9.92523427e-01 -2.51268561e-02 -1.66198195e-04  3.07742088e-04
  1.10163954e-03 -1.62070065e-02  1.58278042e-04 -3.19717519e-04 -9.77326600e-04
  8.70640131e-03  8.96626389e-03  8.78927536e-03 -1.15903272e-05 -1.75449926e-05
  5.63362794e-05  1.21282371e-02  1.64924583e-04 -1.41111118e-03  1.15002023e-03
 -4.66079589e-05  4.21048637e-04 -9.38015045e-06 -3.53228267e-05  2.24805380e-06
 -1.53500153e-05  8.35181160e-06  2.05962534e-04 -6.01973344e-05  1.75230731e-04
 -8.27201533e-05 -7.87192517e-06 -1.61231500e-05 -2.40798818e-05 -8.61527136e-06
  1.84451000e-07 -6.52141487e-06 -8.69314694e-03 -1.35577623e-04 -2.12097559e-03
  3.61203451e-04 -2.34253787e-05  1.58769524e-04 -2.83281227e-05  5.30846192e-05
 -1.42518358e-05  1.29673401e-04 -7.69877353e-06  3.66061319e-05 -3.92405259e-04
  7.85496180e-04 -7.92564656e-06  2.48565412e-04 -7.50167059e-05 -2.32828733e-04
  3.47153499e-06  2.38150479e-05 -1.78788259e-05 -1.89581187e-06  3.83800016e-06
 -9.90436083e-05  5.70664240e-04 -6.24394949e-05 -3.01304597e-04 -1.22115833e-05
  9.70181744e-06 -1.97942721e-06  8.40942526e-06  2.30951913e-05 -5.07835260e-06
  1.06440584e-02 -3.99640113e-03 -1.93066518e-03 -3.01297036e-03 -3.47158154e-06
 -7.52582026e-05 -3.49376787e-05 -1.66209341e-05  4.20544482e-05  6.13064167e-04
  3.52753382e-04 -2.57947038e-04 -1.87920506e-04  5.21804481e-05 -1.07790578e-05
  4.21435935e-05  8.13548749e-06 -4.46161978e-05 -1.15163037e-05 -8.05332019e-03