Generated by Psi4
     FORCE                           RHF                       TESTBAS
Number of atoms                            I               30
Charge                                     I                0
Multiplicity                               I                1
Number of electrons                        I               98
Number of alpha electrons                  I               49
Number of beta electrons                   I               49
Number of basis functions                  I              281
Number of independent functions            I              281
Atomic numbers                             I   N=          30
           6           6           6           1           1           7
           6           6           6           6           6           6
           1           1           1           1           1           1
           1           6           1           1           1           1
           1           8           6           1           1           1
Nuclear charges                            R   N=          30
  6.00000000e+00  6.00000000e+00  6.00000000e+00  1.00000000e+00  1.00000000e+00
  7.00000000e+00  6.00000000e+00  6.00000000e+00  6.00000000e+00  6.00000000e+00
  6.00000000e+00  6.00000000e+00  1.00000000e+00  1.00000000e+00  1.00000000e+00
  1.00000000e+00  1.00000000e+00  1.00000000e+00  1.00000000e+00  6.00000000e+00
  1.00000000e+00  1.00000000e+00  1.00000000e+00  1.00000000e+00  1.00000000e+00
  8.00000000e+00  6.00000000e+00  1.00000000e+00  1.00000000e+00  1.00000000e+00
Current cartesian coordinates              R   N=          90
  6.58899549e-01 -8.59212916e-01  6.49037181e-01 -6.76802605e-01 -2.09504630e+00
  2.85751724e+00 -3.55027573e+00 -1.57151468e+00  3.00854091e+00  2.03540510e-01
 -1.47072143e+00  4.63406550e+00 -4.40639472e-01 -4.15244803e+00  2.77185766e+00
 -4.62532123e+00 -3.24368887e+00  4.95039836e+00  2.23192742e+00  1.23925157e+00
  9.59729594e-01  3.45534397e+00  2.39386505e+00 -1.08645053e+00  3.10617173e+00
  1.43156605e+00 -3.52336157e+00  1.54278092e+00 -6.81501570e-01 -3.87850049e+00
  3.50831115e-01 -1.79788742e+00 -1.82038381e+00 -4.12474684e+00  1.25315019e+00
  3.39814046e+00 -4.39944532e+00 -2.16887229e+00  1.20811152e+00 -3.29857691e+00
  1.92518989e+00  5.18201305e+00 -6.16296992e+00  1.61094302e+00  3.46531467e+00
 -3.33593413e+00  2.39760984e+00  1.86341043e+00  1.30210024e+00 -1.42157409e+00
 -5.77796571e+00 -8.37858530e-01 -3.44706245e+00 -2.13373210e+00  4.66185058e+00
  4.01554227e+00 -7.47466908e-01 -7.38134405e+00 -3.37044227e+00  5.03439323e+00
 -3.93734439e+00 -2.74871822e+00  6.68111935e+00 -8.08101122e+00 -4.07737893e+00
  3.21588677e+00 -8.34411339e+00 -1.56125358e+00  5.42916509e+00 -7.94795251e+00
 -4.72730349e+00  6.49176981e+00  2.53011357e+00  2.00821497e+00  2.84379223e+00
  4.20124221e+00  2.39670976e+00 -5.66087637e+00  5.81276680e+00  4.52926253e+00
 -5.41991208e+00  4.79229567e+00  6.16579347e+00 -4.65280724e+00  6.46252430e+00
  4.96094049e+00 -7.32938327e+00  7.44868490e+00  4.10857116e+00 -4.21385094e+00
Integer atomic weights                     I   N=          30
          12          12          12           1           1          14
          12          12          12          12          12          12
           1           1           1           1           1           1
           1          12           1           1           1           1
           1          15          12           1           1           1
Real atomic weights                        R   N=          30
  1.20000000e+01  1.20000000e+01  1.20000000e+01  1.00782503e+00  1.00782503e+00
  1.40030740e+01  1.20000000e+01  1.20000000e+01  1.20000000e+01  1.20000000e+01
  1.20000000e+01  1.20000000e+01  1.00782503e+00  1.00782503e+00  1.00782503e+00
  1.00782503e+00  1.00782503e+00  1.00782503e+00  1.00782503e+00  1.20000000e+01
  1.00782503e+00  1.00782503e+00  1.00782503e+00  1.00782503e+00  1.00782503e+00
  1.59949146e+01  1.20000000e+01  1.00782503e+00  1.00782503e+00  1.00782503e+00
Number of primitive shells                 I              289
Number of contracted shells                I              138
Pure/Cartesian d shells                    I                1
Pure/Cartesian f shells                    I                1
Highest angular momentum                   I                2
Largest degree of contraction              I                6
Shell types                                I   N=         138
           0           0           1           0           1           2
           0           1           0           0           1           0
           1           2           0           1           0           0
           1           0           1           2           0           1
           0           0           0           0           0           0
           1           0           1           2           0           1
           0           0           1           0           1           2
           0           1           0           0           1           0
           1           2           0           1           0           0
           1           0           1           2           0           1
           0           0           1           0           1           2
           0           1           0           0           1           0
           1           2           0           1           0           0
           1           0           1           2           0           1
           0           0           0           0           0           0
           0           0           0           0           0           0
           0           0           0           0           1           0
           1           2           0           1           0           0
           0           0           0           0           0           0
           0           0           0           0           1           0
           1           2           0           1           0           0
           1           0           1           2           0           1
           0           0           0           0           0           0
Number of primitives per shell             I   N=         138
           6           3           3           1           1           1
           1           1           6           3           3           1
           1           1           1           1           6           3
           3           1           1           1           1           1
           3           1           3           1           6           3
           3           1           1           1           1           1
           6           3           3           1           1           1
           1           1           6           3           3           1
           1           1           1           1           6           3
           3           1           1           1           1           1
           6           3           3           1           1           1
           1           1           6           3           3           1
           1           1           1           1           6           3
           3           1           1           1           1           1
           3           1           3           1           3           1
           3           1           3           1           3           1
           3           1           6           3           3           1
           1           1           1           1           3           1
           3           1           3           1           3           1
           3           1           6           3           3           1
           1           1           1           1           6           3
           3           1           1           1           1           1
           3           1           3           1           3           1
Shell to atom map                          I   N=         138
           1           1           1           1           1           1
           1           1           2           2           2           2
           2           2           2           2           3           3
           3           3           3           3           3           3
           4           4           5           5           6           6
           6           6           6           6           6           6
           7           7           7           7           7           7
           7           7           8           8           8           8
           8           8           8           8           9           9
           9           9           9           9           9           9
          10          10          10          10          10          10
          10          10          11          11          11          11
          11          11          11          11          12          12
          12          12          12          12          12          12
          13          13          14          14          15          15
          16          16          17          17          18          18
          19          19          20          20          20          20
          20          20          20          20          21          21
          22          22          23          23          24          24
          25          25          26          26          26          26
          26          26          26          26          27          27
          27          27          27          27          27          27
          28          28          29          29          30          30
Primitive exponents                        R   N=         289
  3.04752490e+03  4.57369510e+02  1.03948690e+02  2.92101550e+01  9.28666300e+00
  3.16392700e+00  7.86827240e+00  1.88128850e+00  5.44249300e-01  7.86827240e+00
  1.88128850e+00  5.44249300e-01  1.68714400e-01  1.68714400e-01  8.00000000e-01
  4.38000000e-02  4.38000000e-02  3.04752490e+03  4.57369510e+02  1.03948690e+02
  2.92101550e+01  9.28666300e+00  3.16392700e+00  7.86827240e+00  1.88128850e+00
  5.44249300e-01  7.86827240e+00  1.88128850e+00  5.44249300e-01  1.68714400e-01
  1.68714400e-01  8.00000000e-01  4.38000000e-02  4.38000000e-02  3.04752490e+03
  4.57369510e+02  1.03948690e+02  2.92101550e+01  9.28666300e+00  3.16392700e+00
  7.86827240e+00  1.88128850e+00  5.44249300e-01  7.86827240e+00  1.88128850e+00
  5.44249300e-01  1.68714400e-01  1.68714400e-01  8.00000000e-01  4.38000000e-02
  4.38000000e-02  1.87311370e+01  2.82539370e+00  6.40121700e-01  1.61277800e-01
  1.87311370e+01  2.82539370e+00  6.40121700e-01  1.61277800e-01  4.17351100e+03
  6.27457900e+02  1.42902100e+02  4.02343300e+01  1.28202100e+01  4.39043700e+00
  1.16263580e+01  2.71628000e+00  7.72218000e-01  1.16263580e+01  2.71628000e+00
  7.72218000e-01  2.12031300e-01  2.12031300e-01  8.00000000e-01  6.39000000e-02
  6.39000000e-02  3.04752490e+03  4.57369510e+02  1.03948690e+02  2.92101550e+01
  9.28666300e+00  3.16392700e+00  7.86827240e+00  1.88128850e+00  5.44249300e-01
  7.86827240e+00  1.88128850e+00  5.44249300e-01  1.68714400e-01  1.68714400e-01
  8.00000000e-01  4.38000000e-02  4.38000000e-02  3.04752490e+03  4.57369510e+02
  1.03948690e+02  2.92101550e+01  9.28666300e+00  3.16392700e+00  7.86827240e+00
  1.88128850e+00  5.44249300e-01  7.86827240e+00  1.88128850e+00  5.44249300e-01
  1.68714400e-01  1.68714400e-01  8.00000000e-01  4.38000000e-02  4.38000000e-02
  3.04752490e+03  4.57369510e+02  1.03948690e+02  2.92101550e+01  9.28666300e+00
  3.16392700e+00  7.86827240e+00  1.88128850e+00  5.44249300e-01  7.86827240e+00
  1.88128850e+00  5.44249300e-01  1.68714400e-01  1.68714400e-01  8.00000000e-01
  4.38000000e-02  4.38000000e-02  3.04752490e+03  4.57369510e+02  1.03948690e+02
  2.92101550e+01  9.28666300e+00  3.16392700e+00  7.86827240e+00  1.88128850e+00
  5.44249300e-01  7.86827240e+00  1.88128850e+00  5.44249300e-01  1.68714400e-01
  1.68714400e-01  8.00000000e-01  4.38000000e-02  4.38000000e-02  3.04752490e+03
  4.57369510e+02  1.03948690e+02  2.92101550e+01  9.28666300e+00  3.16392700e+00
  7.86827240e+00  1.88128850e+00  5.44249300e-01  7.86827240e+00  1.88128850e+00
  5.44249300e-01  1.68714400e-01  1.68714400e-01  8.00000000e-01  4.38000000e-02
  4.38000000e-02  3.04752490e+03  4.57369510e+02  1.03948690e+02  2.92101550e+01
  9.28666300e+00  3.16392700e+00  7.86827240e+00  1.88128850e+00  5.44249300e-01
  7.86827240e+00  1.88128850e+00  5.44249300e-01  1.68714400e-01  1.68714400e-01
  8.00000000e-01  4.38000000e-02  4.38000000e-02  1.87311370e+01  2.82539370e+00
  6.40121700e-01  1.61277800e-01  1.87311370e+01  2.82539370e+00  6.40121700e-01
  1.61277800e-01  1.87311370e+01  2.82539370e+00  6.40121700e-01  1.61277800e-01
  1.87311370e+01  2.82539370e+00  6.40121700e-01  1.61277800e-01  1.87311370e+01
  2.82539370e+00  6.40121700e-01  1.61277800e-01  1.87311370e+01  2.82539370e+00
  6.40121700e-01  1.61277800e-01  1.87311370e+01  2.82539370e+00  6.40121700e-01
  1.61277800e-01  3.04752490e+03  4.57369510e+02  1.03948690e+02  2.92101550e+01
  9.28666300e+00  3.16392700e+00  7.86827240e+00  1.88128850e+00  5.44249300e-01
  7.86827240e+00  1.88128850e+00  5.44249300e-01  1.68714400e-01  1.68714400e-01
  8.00000000e-01  4.38000000e-02  4.38000000e-02  1.87311370e+01  2.82539370e+00
  6.40121700e-01  1.61277800e-01  1.87311370e+01  2.82539370e+00  6.40121700e-01
  1.61277800e-01  1.87311370e+01  2.82539370e+00  6.40121700e-01  1.61277800e-01
  1.87311370e+01  2.82539370e+00  6.40121700e-01  1.61277800e-01  1.87311370e+01
  2.82539370e+00  6.40121700e-01  1.61277800e-01  5.48467170e+03  8.25234950e+02
  1.88046960e+02  5.29645000e+01  1.68975700e+01  5.79963530e+00  1.55396160e+01
  3.59993360e+00  1.01376180e+00  1.55396160e+01  3.59993360e+00  1.01376180e+00
  2.70005800e-01  2.70005800e-01  8.00000000e-01  8.45000000e-02  8.45000000e-02
  3.04752490e+03  4.57369510e+02  1.03948690e+02  2.92101550e+01  9.28666300e+00
  3.16392700e+00  7.86827240e+00  1.88128850e+00  5.44249300e-01  7.86827240e+00
  1.88128850e+00  5.44249300e-01  1.68714400e-01  1.68714400e-01  8.00000000e-01
  4.38000000e-02  4.38000000e-02  1.87311370e+01  2.82539370e+00  6.40121700e-01
  1.61277800e-01  1.87311370e+01  2.82539370e+00  6.40121700e-01  1.61277800e-01
  1.87311370e+01  2.82539370e+00  6.40121700e-01  1.61277800e-01
Contraction coefficients                   R   N=         289
  1.83470016e-03  1.40373012e-02  6.88426061e-02  2.32184421e-01  4.67941342e-01
  3.62312032e-01 -1.19332409e-01 -1.60854212e-01  1.14345648e+00  6.89990956e-02
  3.16423980e-01  7.44308252e-01  1.00000000e+00  1.00000000e+00  1.00000000e+00
  1.00000000e+00  1.00000000e+00  1.83470016e-03  1.40373012e-02  6.88426061e-02
  2.32184421e-01  4.67941342e-01  3.62312032e-01 -1.19332409e-01 -1.60854212e-01
  1.14345648e+00  6.89990956e-02  3.16423980e-01  7.44308252e-01  1.00000000e+00
  1.00000000e+00  1.00000000e+00  1.00000000e+00  1.00000000e+00  1.83470016e-03
  1.40373012e-02  6.88426061e-02  2.32184421e-01  4.67941342e-01  3.62312032e-01
 -1.19332409e-01 -1.60854212e-01  1.14345648e+00  6.89990956e-02  3.16423980e-01
  7.44308252e-01  1.00000000e+00  1.00000000e+00  1.00000000e+00  1.00000000e+00
  1.00000000e+00  3.34945995e-02  2.34726947e-01  8.13757318e-01  1.00000000e+00
  3.34945995e-02  2.34726947e-01  8.13757318e-01  1.00000000e+00  1.83479944e-03
  1.39949958e-02  6.85869792e-02  2.32240930e-01  4.69069858e-01  3.60454891e-01
 -1.14961023e-01 -1.69118034e-01  1.14585223e+00  6.75800232e-02  3.23907111e-01
  7.40895255e-01  1.00000000e+00  1.00000000e+00  1.00000000e+00  1.00000000e+00
  1.00000000e+00  1.83470016e-03  1.40373012e-02  6.88426061e-02  2.32184421e-01
  4.67941342e-01  3.62312032e-01 -1.19332409e-01 -1.60854212e-01  1.14345648e+00
  6.89990956e-02  3.16423980e-01  7.44308252e-01  1.00000000e+00  1.00000000e+00
  1.00000000e+00  1.00000000e+00  1.00000000e+00  1.83470016e-03  1.40373012e-02
  6.88426061e-02  2.32184421e-01  4.67941342e-01  3.62312032e-01 -1.19332409e-01
 -1.60854212e-01  1.14345648e+00  6.89990956e-02  3.16423980e-01  7.44308252e-01
  1.00000000e+00  1.00000000e+00  1.00000000e+00  1.00000000e+00  1.00000000e+00
  1.83470016e-03  1.40373012e-02  6.88426061e-02  2.32184421e-01  4.67941342e-01
  3.62312032e-01 -1.19332409e-01 -1.60854212e-01  1.14345648e+00  6.89990956e-02
  3.16423980e-01  7.44308252e-01  1.00000000e+00  1.00000000e+00  1.00000000e+00
  1.00000000e+00  1.00000000e+00  1.83470016e-03  1.40373012e-02  6.88426061e-02
  2.32184421e-01  4.67941342e-01  3.62312032e-01 -1.19332409e-01 -1.60854212e-01
  1.14345648e+00  6.89990956e-02  3.16423980e-01  7.44308252e-01  1.00000000e+00
  1.00000000e+00  1.00000000e+00  1.00000000e+00  1.00000000e+00  1.83470016e-03
  1.40373012e-02  6.88426061e-02  2.32184421e-01  4.67941342e-01  3.62312032e-01
 -1.19332409e-01 -1.60854212e-01  1.14345648e+00  6.89990956e-02  3.16423980e-01
  7.44308252e-01  1.00000000e+00  1.00000000e+00  1.00000000e+00  1.00000000e+00
  1.00000000e+00  1.83470016e-03  1.40373012e-02  6.88426061e-02  2.32184421e-01
  4.67941342e-01  3.62312032e-01 -1.19332409e-01 -1.60854212e-01  1.14345648e+00
  6.89990956e-02  3.16423980e-01  7.44308252e-01  1.00000000e+00  1.00000000e+00
  1.00000000e+00  1.00000000e+00  1.00000000e+00  3.34945995e-02  2.34726947e-01
  8.13757318e-01  1.00000000e+00  3.34945995e-02  2.34726947e-01  8.13757318e-01
  1.00000000e+00  3.34945995e-02  2.34726947e-01  8.13757318e-01  1.00000000e+00
  3.34945995e-02  2.34726947e-01  8.13757318e-01  1.00000000e+00  3.34945995e-02
  2.34726947e-01  8.13757318e-01  1.00000000e+00  3.34945995e-02  2.34726947e-01
  8.13757318e-01  1.00000000e+00  3.34945995e-02  2.34726947e-01  8.13757318e-01
  1.00000000e+00  1.83470016e-03  1.40373012e-02  6.88426061e-02  2.32184421e-01
  4.67941342e-01  3.62312032e-01 -1.19332409e-01 -1.60854212e-01  1.14345648e+00
  6.89990956e-02  3.16423980e-01  7.44308252e-01  1.00000000e+00  1.00000000e+00
  1.00000000e+00  1.00000000e+00  1.00000000e+00  3.34945995e-02  2.34726947e-01
  8.13757318e-01  1.00000000e+00  3.34945995e-02  2.34726947e-01  8.13757318e-01
  1.00000000e+00  3.34945995e-02  2.34726947e-01  8.13757318e-01  1.00000000e+00
  3.34945995e-02  2.34726947e-01  8.13757318e-01  1.00000000e+00  3.34945995e-02
  2.34726947e-01  8.13757318e-01  1.00000000e+00  1.83109981e-03  1.39500985e-02
  6.84450927e-02  2.32714275e-01  4.70192950e-01  3.58520862e-01 -1.10777504e-01
 -1.48026305e-01  1.13076704e+00  7.08742995e-02  3.39752798e-01  7.27158595e-01
  1.00000000e+00  1.00000000e+00  1.00000000e+00  1.00000000e+00  1.00000000e+00
  1.83470016e-03  1.40373012e-02  6.88426061e-02  2.32184421e-01  4.67941342e-01
  3.62312032e-01 -1.19332409e-01 -1.60854212e-01  1.14345648e+00  6.89990956e-02
  3.16423980e-01  7.44308252e-01  1.00000000e+00  1.00000000e+00  1.00000000e+00
  1.00000000e+00  1.00000000e+00  3.34945995e-02  2.34726947e-01  8.13757318e-01
  1.00000000e+00  3.34945995e-02  2.34726947e-01  8.13757318e-01  1.00000000e+00
  3.34945995e-02  2.34726947e-01  8.13757318e-01  1.00000000e+00
Coordinates of each shell                  R   N=         414
  6.58899549e-01 -8.59212916e-01  6.49037181e-01  6.58899549e-01 -8.59212916e-01
  6.49037181e-01  6.58899549e-01 -8.59212916e-01  6.49037181e-01  6.58899549e-01
 -8.59212916e-01  6.49037181e-01  6.58899549e-01 -8.59212916e-01  6.49037181e-01
  6.58899549e-01 -8.59212916e-01  6.49037181e-01  6.58899549e-01 -8.59212916e-01
  6.49037181e-01  6.58899549e-01 -8.59212916e-01  6.49037181e-01 -6.76802605e-01
 -2.09504630e+00  2.85751724e+00 -6.76802605e-01 -2.09504630e+00  2.85751724e+00
 -6.76802605e-01 -2.09504630e+00  2.85751724e+00 -6.76802605e-01 -2.09504630e+00
  2.85751724e+00 -6.76802605e-01 -2.09504630e+00  2.85751724e+00 -6.76802605e-01
 -2.09504630e+00  2.85751724e+00 -6.76802605e-01 -2.09504630e+00  2.85751724e+00
 -6.76802605e-01 -2.09504630e+00  2.85751724e+00 -3.55027573e+00 -1.57151468e+00
  3.00854091e+00 -3.55027573e+00 -1.57151468e+00  3.00854091e+00 -3.55027573e+00
 -1.57151468e+00  3.00854091e+00 -3.55027573e+00 -1.57151468e+00  3.00854091e+00
 -3.55027573e+00 -1.57151468e+00  3.00854091e+00 -3.55027573e+00 -1.57151468e+00
  3.00854091e+00 -3.55027573e+00 -1.57151468e+00  3.00854091e+00 -3.55027573e+00
 -1.57151468e+00  3.00854091e+00  2.03540510e-01 -1.47072143e+00  4.63406550e+00
  2.03540510e-01 -1.47072143e+00  4.63406550e+00 -4.40639472e-01 -4.15244803e+00
  2.77185766e+00 -4.40639472e-01 -4.15244803e+00  2.77185766e+00 -4.62532123e+00
 -3.24368887e+00  4.95039836e+00 -4.62532123e+00 -3.24368887e+00  4.95039836e+00
 -4.62532123e+00 -3.24368887e+00  4.95039836e+00 -4.62532123e+00 -3.24368887e+00
  4.95039836e+00 -4.62532123e+00 -3.24368887e+00  4.95039836e+00 -4.62532123e+00
 -3.24368887e+00  4.95039836e+00 -4.62532123e+00 -3.24368887e+00  4.95039836e+00
 -4.62532123e+00 -3.24368887e+00  4.95039836e+00  2.23192742e+00  1.23925157e+00
  9.59729594e-01  2.23192742e+00  1.23925157e+00  9.59729594e-01  2.23192742e+00
  1.23925157e+00  9.59729594e-01  2.23192742e+00  1.23925157e+00  9.59729594e-01
  2.23192742e+00  1.23925157e+00  9.59729594e-01  2.23192742e+00  1.23925157e+00
  9.59729594e-01  2.23192742e+00  1.23925157e+00  9.59729594e-01  2.23192742e+00
  1.23925157e+00  9.59729594e-01  3.45534397e+00  2.39386505e+00 -1.08645053e+00
  3.45534397e+00  2.39386505e+00 -1.08645053e+00  3.45534397e+00  2.39386505e+00
 -1.08645053e+00  3.45534397e+00  2.39386505e+00 -1.08645053e+00  3.45534397e+00
  2.39386505e+00 -1.08645053e+00  3.45534397e+00  2.39386505e+00 -1.08645053e+00
  3.45534397e+00  2.39386505e+00 -1.08645053e+00  3.45534397e+00  2.39386505e+00
 -1.08645053e+00  3.10617173e+00  1.43156605e+00 -3.52336157e+00  3.10617173e+00
  1.43156605e+00 -3.52336157e+00  3.10617173e+00  1.43156605e+00 -3.52336157e+00
  3.10617173e+00  1.43156605e+00 -3.52336157e+00  3.10617173e+00  1.43156605e+00
 -3.52336157e+00  3.10617173e+00  1.43156605e+00 -3.52336157e+00  3.10617173e+00
  1.43156605e+00 -3.52336157e+00  3.10617173e+00  1.43156605e+00 -3.52336157e+00
  1.54278092e+00 -6.81501570e-01 -3.87850049e+00  1.54278092e+00 -6.81501570e-01
 -3.87850049e+00  1.54278092e+00 -6.81501570e-01 -3.87850049e+00  1.54278092e+00
 -6.81501570e-01 -3.87850049e+00  1.54278092e+00 -6.81501570e-01 -3.87850049e+00
  1.54278092e+00 -6.81501570e-01 -3.87850049e+00  1.54278092e+00 -6.81501570e-01
 -3.87850049e+00  1.54278092e+00 -6.81501570e-01 -3.87850049e+00  3.50831115e-01
 -1.79788742e+00 -1.82038381e+00  3.50831115e-01 -1.79788742e+00 -1.82038381e+00
  3.50831115e-01 -1.79788742e+00 -1.82038381e+00  3.50831115e-01 -1.79788742e+00
 -1.82038381e+00  3.50831115e-01 -1.79788742e+00 -1.82038381e+00  3.50831115e-01
 -1.79788742e+00 -1.82038381e+00  3.50831115e-01 -1.79788742e+00 -1.82038381e+00
  3.50831115e-01 -1.79788742e+00 -1.82038381e+00 -4.12474684e+00  1.25315019e+00
  3.39814046e+00 -4.12474684e+00  1.25315019e+00  3.39814046e+00 -4.12474684e+00
  1.25315019e+00  3.39814046e+00 -4.12474684e+00  1.25315019e+00  3.39814046e+00
 -4.12474684e+00  1.25315019e+00  3.39814046e+00 -4.12474684e+00  1.25315019e+00
  3.39814046e+00 -4.12474684e+00  1.25315019e+00  3.39814046e+00 -4.12474684e+00
  1.25315019e+00  3.39814046e+00 -4.39944532e+00 -2.16887229e+00  1.20811152e+00
 -4.39944532e+00 -2.16887229e+00  1.20811152e+00 -3.29857691e+00  1.92518989e+00
  5.18201305e+00 -3.29857691e+00  1.92518989e+00  5.18201305e+00 -6.16296992e+00
  1.61094302e+00  3.46531467e+00 -6.16296992e+00  1.61094302e+00  3.46531467e+00
 -3.33593413e+00  2.39760984e+00  1.86341043e+00 -3.33593413e+00  2.39760984e+00
  1.86341043e+00  1.30210024e+00 -1.42157409e+00 -5.77796571e+00  1.30210024e+00
 -1.42157409e+00 -5.77796571e+00 -8.37858530e-01 -3.44706245e+00 -2.13373210e+00
 -8.37858530e-01 -3.44706245e+00 -2.13373210e+00  4.66185058e+00  4.01554227e+00
 -7.47466908e-01  4.66185058e+00  4.01554227e+00 -7.47466908e-01 -7.38134405e+00
 -3.37044227e+00  5.03439323e+00 -7.38134405e+00 -3.37044227e+00  5.03439323e+00
 -7.38134405e+00 -3.37044227e+00  5.03439323e+00 -7.38134405e+00 -3.37044227e+00
  5.03439323e+00 -7.38134405e+00 -3.37044227e+00  5.03439323e+00 -7.38134405e+00
 -3.37044227e+00  5.03439323e+00 -7.38134405e+00 -3.37044227e+00  5.03439323e+00
 -7.38134405e+00 -3.37044227e+00  5.03439323e+00 -3.93734439e+00 -2.74871822e+00
  6.68111935e+00 -3.93734439e+00 -2.74871822e+00  6.68111935e+00 -8.08101122e+00
 -4.07737893e+00  3.21588677e+00 -8.08101122e+00 -4.07737893e+00  3.21588677e+00
 -8.34411339e+00 -1.56125358e+00  5.42916509e+00 -8.34411339e+00 -1.56125358e+00
  5.42916509e+00 -7.94795251e+00 -4.72730349e+00  6.49176981e+00 -7.94795251e+00
 -4.72730349e+00  6.49176981e+00  2.53011357e+00  2.00821497e+00  2.84379223e+00
  2.53011357e+00  2.00821497e+00  2.84379223e+00  4.20124221e+00  2.39670976e+00
 -5.66087637e+00  4.20124221e+00  2.39670976e+00 -5.66087637e+00  4.20124221e+00
  2.39670976e+00 -5.66087637e+00  4.20124221e+00  2.39670976e+00 -5.66087637e+00
  4.20124221e+00  2.39670976e+00 -5.66087637e+00  4.20124221e+00  2.39670976e+00
 -5.66087637e+00  4.20124221e+00  2.39670976e+00 -5.66087637e+00  4.20124221e+00
  2.39670976e+00 -5.66087637e+00  5.81276680e+00  4.52926253e+00 -5.41991208e+00
  5.81276680e+00  4.52926253e+00 -5.41991208e+00  5.81276680e+00  4.52926253e+00
 -5.41991208e+00  5.81276680e+00  4.52926253e+00 -5.41991208e+00  5.81276680e+00
  4.52926253e+00 -5.41991208e+00  5.81276680e+00  4.52926253e+00 -5.41991208e+00
  5.81276680e+00  4.52926253e+00 -5.41991208e+00  5.81276680e+00  4.52926253e+00
 -5.41991208e+00  4.79229567e+00  6.16579347e+00 -4.65280724e+00  4.79229567e+00
  6.16579347e+00 -4.65280724e+00  6.46252430e+00  4.96094049e+00 -7.32938327e+00
  6.46252430e+00  4.96094049e+00 -7.32938327e+00  7.44868490e+00  4.10857116e+00
 -4.21385094e+00  7.44868490e+00  4.10857116e+00 -4.21385094e+00
Total Energy                               R     -5.593864838371004e+02
Alpha Orbital Energies                     R   N=         281
 -1.91863954e+01 -1.43220665e+01 -1.02515174e+01 -1.02452999e+01 -1.02166290e+01
 -1.02037585e+01 -1.01941733e+01 -1.01934463e+01 -1.01932463e+01 -1.01927049e+01
 -1.01895612e+01 -1.01849423e+01 -1.01741776e+01 -1.06896775e+00 -9.03852359e-01
 -8.56328040e-01 -7.86334853e-01 -7.53078636e-01 -7.43960136e-01 -7.09021146e-01
 -6.78679810e-01 -6.54215155e-01 -6.14396893e-01 -5.94122417e-01 -5.73343914e-01
 -5.36410268e-01 -4.89231084e-01 -4.81559773e-01 -4.73289070e-01 -4.71762863e-01
 -4.54511508e-01 -4.45784339e-01 -4.35084132e-01 -4.24568020e-01 -4.20743128e-01
 -4.12542122e-01 -3.93737766e-01 -3.86386242e-01 -3.78696436e-01 -3.68259536e-01
 -3.62820458e-01 -3.51555123e-01 -3.42785151e-01 -3.34616165e-01 -3.28294196e-01
 -3.13691758e-01 -2.54887954e-01 -2.24258974e-01 -2.17197615e-01 -1.27435000e-02
 -1.86289300e-03  2.28217305e-03  9.37846145e-03  1.66487313e-02  2.23238866e-02
  2.74736912e-02  3.03889354e-02  4.08813171e-02  4.44492789e-02  4.59630501e-02
  4.98404598e-02  5.47524802e-02  6.20253464e-02  7.04714095e-02  7.49626890e-02
  7.75772439e-02  8.86476595e-02  9.35082948e-02  9.86961889e-02  1.01170461e-01
  1.06084093e-01  1.10632104e-01  1.14539773e-01  1.16740390e-01  1.29132105e-01
  1.32441504e-01  1.38068239e-01  1.42688512e-01  1.50928266e-01  1.54737569e-01
  1.58631946e-01  1.63238653e-01  1.64872371e-01  1.72202084e-01  1.76458657e-01
  1.85932719e-01  1.89274144e-01  1.94487317e-01  1.96916183e-01  2.03781941e-01
  2.06025317e-01  2.11796477e-01  2.17169340e-01  2.21574170e-01  2.25326594e-01
  2.27601885e-01  2.29423780e-01  2.33544180e-01  2.34578351e-01  2.43209866e-01
  2.52340683e-01  2.55356257e-01  2.57094557e-01  2.62006323e-01  2.66368074e-01
  2.70336322e-01  2.79767093e-01  2.82506557e-01  2.84613344e-01  2.85846259e-01
  2.93501022e-01  3.01346231e-01  3.03873670e-01  3.05534044e-01  3.11444919e-01
  3.17025672e-01  3.19051063e-01  3.30235401e-01  3.35363203e-01  3.47353578e-01
  3.51019545e-01  3.57467634e-01  3.67429801e-01  3.76552361e-01  3.83483916e-01
  3.86041927e-01  3.91179019e-01  4.12767585e-01  4.14952182e-01  4.46102402e-01
  4.59912025e-01  4.83699459e-01  5.70506980e-01  6.08058001e-01  6.52530031e-01
  6.56070289e-01  6.67316279e-01  6.77011539e-01  6.82114077e-01  6.89931559e-01
  6.91790321e-01  6.99408090e-01  7.04122763e-01  7.18603671e-01  7.27572142e-01
  7.38982359e-01  7.40345481e-01  7.58253955e-01  7.67670268e-01  7.76210430e-01
  7.85757224e-01  7.91306863e-01  8.05107606e-01  8.26945595e-01  8.39771408e-01
  8.40566137e-01  8.74857945e-01  8.88830016e-01  9.00412140e-01  9.09761037e-01
  9.15733776e-01  9.24274111e-01  9.34939153e-01  9.43816457e-01  9.68309305e-01
  9.77958863e-01  9.85219832e-01  9.93258224e-01  1.01013907e+00  1.02238748e+00
  1.03040165e+00  1.03322062e+00  1.04963488e+00  1.06538893e+00  1.07834226e+00
  1.09302569e+00  1.09718873e+00  1.10422057e+00  1.11849760e+00  1.12596220e+00
  1.13446916e+00  1.15691216e+00  1.17183413e+00  1.17794877e+00  1.19924787e+00
  1.21895372e+00  1.22057669e+00  1.24292526e+00  1.25530229e+00  1.26031849e+00
  1.27338940e+00  1.30444535e+00  1.32411583e+00  1.32770144e+00  1.35823801e+00
  1.38008836e+00  1.41823015e+00  1.43410552e+00  1.45797990e+00  1.46160795e+00
  1.46973044e+00  1.48162267e+00  1.51351373e+00  1.51614309e+00  1.52715916e+00
  1.54359786e+00  1.55034656e+00  1.63428812e+00  1.65788835e+00  1.71705079e+00
  1.73057581e+00  1.76055810e+00  1.79518757e+00  1.82270884e+00  1.83519693e+00
  1.85802459e+00  1.89131105e+00  1.90497657e+00  1.92374409e+00  1.94106326e+00
  1.95969496e+00  1.97153314e+00  1.98533352e+00  2.00552766e+00  2.01194645e+00
  2.03896227e+00  2.05097719e+00  2.07558763e+00  2.08712934e+00  2.10562582e+00
  2.12215202e+00  2.12402350e+00  2.14732295e+00  2.16185706e+00  2.17035530e+00
  2.19297056e+00  2.19590494e+00  2.22531103e+00  2.26723284e+00  2.29241670e+00