Generated by Psi4
     FORCE                           RHF                       TESTBAS
Number of atoms                            I               36
Charge                                     I                0
Multiplicity                               I                1
Number of electrons                        I              112
Number of alpha electrons                  I               56
Number of beta electrons                   I               56
Number of basis functions                  I              327
Number of independent functions            I              327
Atomic numbers                             I   N=          36
           6           6           6           6           6           6
           6           6           6           6           6           6
           1           1           1           1           1           1
           1           1           1           1           1           1
           1           1           1           7           6           6
           1           1           1           1           1           1
Nuclear charges                            R   N=          36
  6.00000000e+00  6.00000000e+00  6.00000000e+00  6.00000000e+00  6.00000000e+00
  6.00000000e+00  6.00000000e+00  6.00000000e+00  6.00000000e+00  6.00000000e+00
  6.00000000e+00  6.00000000e+00  1.00000000e+00  1.00000000e+00  1.00000000e+00
  1.00000000e+00  1.00000000e+00  1.00000000e+00  1.00000000e+00  1.00000000e+00
  1.00000000e+00  1.00000000e+00  1.00000000e+00  1.00000000e+00  1.00000000e+00
  1.00000000e+00  1.00000000e+00  7.00000000e+00  6.00000000e+00  6.00000000e+00
  1.00000000e+00  1.00000000e+00  1.00000000e+00  1.00000000e+00  1.00000000e+00
  1.00000000e+00
Current cartesian coordinates              R   N=         108
 -6.25171704e+00 -1.55840864e+00 -2.65358674e-01 -4.42607995e+00 -2.84229797e+00
  1.58882756e+00 -1.63836123e+00 -2.57033835e+00  7.78413231e-01 -7.44312198e-01
  1.36939182e-01  2.85931480e-02  3.98209633e+00 -7.58299176e-01  1.22506524e-01
  1.84137371e+00 -1.56150219e-01 -1.33456966e+00  6.34162698e+00 -1.14562947e+00
 -9.85610832e-01  6.64031424e+00 -9.12746600e-01 -3.60198613e+00 -5.48012857e+00
  1.19694922e+00 -7.42748340e-01 -2.76041523e+00  1.32844371e+00 -1.74842248e+00
  2.17495386e+00  6.75308659e-02 -3.95534740e+00  4.54585957e+00 -2.96478035e-01
 -5.07617004e+00 -6.75629505e+00  2.06517986e+00 -2.13043247e+00 -5.67709387e+00
  2.30242247e+00  1.00025885e+00 -1.33871071e+00 -3.76558659e+00 -8.90711284e-01
 -3.80452044e-01 -3.32070005e+00  2.24563049e+00 -6.24007362e+00 -2.58335206e+00
 -2.07607481e+00 -8.19309778e+00 -1.66095781e+00  4.59891695e-01  4.73965897e+00
 -9.10723202e-02 -7.11199355e+00  7.95517785e+00 -1.61448462e+00  1.98366485e-01
 -4.86741009e+00 -4.86546704e+00  1.73536928e+00 -4.72539993e+00 -2.05252788e+00
  3.47880109e+00  8.47974429e+00 -1.19857897e+00 -4.47153554e+00  6.01328188e-01
  5.43720627e-01 -5.17818411e+00  3.78152788e+00 -8.76193210e-01  2.15975501e+00
 -2.75172133e+00  3.23312804e-01 -3.56267254e+00 -2.22130688e+00  3.29126740e+00
 -2.16223742e+00 -2.10357807e-01  1.73036771e+00  2.27165328e+00 -1.62484913e+00
  1.67108024e+00  4.63984567e+00 -4.18974021e-01  3.49697202e+00  6.53163512e+00
 -1.53362217e+00 -2.45896783e-01  5.41582320e+00 -3.64804214e+00  2.14921074e+00
  4.45333130e+00  1.56356288e+00  3.00462029e+00  6.86928920e+00 -1.43348572e+00
  3.44824424e+00  8.33780403e+00 -4.82798535e-01  5.44990995e+00  5.83176300e+00
  7.78897938e-02  3.54554491e+00  1.70473394e+00
Integer atomic weights                     I   N=          36
          12          12          12          12          12          12
          12          12          12          12          12          12
           1           1           1           1           1           1
           1           1           1           1           1           1
           1           1           1          14          12          12
           1           1           1           1           1           1
Real atomic weights                        R   N=          36
  1.20000000e+01  1.20000000e+01  1.20000000e+01  1.20000000e+01  1.20000000e+01
  1.20000000e+01  1.20000000e+01  1.20000000e+01  1.20000000e+01  1.20000000e+01
  1.20000000e+01  1.20000000e+01  1.00782503e+00  1.00782503e+00  1.00782503e+00
  1.00782503e+00  1.00782503e+00  1.00782503e+00  1.00782503e+00  1.00782503e+00
  1.00782503e+00  1.00782503e+00  1.00782503e+00  1.00782503e+00  1.00782503e+00
  1.00782503e+00  1.00782503e+00  1.40030740e+01  1.20000000e+01  1.20000000e+01
  1.00782503e+00  1.00782503e+00  1.00782503e+00  1.00782503e+00  1.00782503e+00
  1.00782503e+00
Number of primitive shells                 I              339
Number of contracted shells                I              162
Pure/Cartesian d shells                    I                1
Pure/Cartesian f shells                    I                1
Highest angular momentum                   I                2
Largest degree of contraction              I                6
Shell types                                I   N=         162
           0           0           1           0           1           2
           0           1           0           0           1           0
           1           2           0           1           0           0
           1           0           1           2           0           1
           0           0           1           0           1           2
           0           1           0           0           1           0
           1           2           0           1           0           0
           1           0           1           2           0           1
           0           0           1           0           1           2
           0           1           0           0           1           0
           1           2           0           1           0           0
           1           0           1           2           0           1
           0           0           1           0           1           2
           0           1           0           0           1           0
           1           2           0           1           0           0
           1           0           1           2           0           1
           0           0           0           0           0           0
           0           0           0           0           0           0
           0           0           0           0           0           0
           0           0           0           0           0           0
           0           0           0           0           0           0
           0           0           1           0           1           2
           0           1           0           0           1           0
           1           2           0           1           0           0
           1           0           1           2           0           1
           0           0           0           0           0           0
           0           0           0           0           0           0
Number of primitives per shell             I   N=         162
           6           3           3           1           1           1
           1           1           6           3           3           1
           1           1           1           1           6           3
           3           1           1           1           1           1
           6           3           3           1           1           1
           1           1           6           3           3           1
           1           1           1           1           6           3
           3           1           1           1           1           1
           6           3           3           1           1           1
           1           1           6           3           3           1
           1           1           1           1           6           3
           3           1           1           1           1           1
           6           3           3           1           1           1
           1           1           6           3           3           1
           1           1           1           1           6           3
           3           1           1           1           1           1
           3           1           3           1           3           1
           3           1           3           1           3           1
           3           1           3           1           3           1
           3           1           3           1           3           1
           3           1           3           1           3           1
           6           3           3           1           1           1
           1           1           6           3           3           1
           1           1           1           1           6           3
           3           1           1           1           1           1
           3           1           3           1           3           1
           3           1           3           1           3           1
Shell to atom map                          I   N=         162
           1           1           1           1           1           1
           1           1           2           2           2           2
           2           2           2           2           3           3
           3           3           3           3           3           3
           4           4           4           4           4           4
           4           4           5           5           5           5
           5           5           5           5           6           6
           6           6           6           6           6           6
           7           7           7           7           7           7
           7           7           8           8           8           8
           8           8           8           8           9           9
           9           9           9           9           9           9
          10          10          10          10          10          10
          10          10          11          11          11          11
          11          11          11          11          12          12
          12          12          12          12          12          12
          13          13          14          14          15          15
          16          16          17          17          18          18
          19          19          20          20          21          21
          22          22          23          23          24          24
          25          25          26          26          27          27
          28          28          28          28          28          28
          28          28          29          29          29          29
          29          29          29          29          30          30
          30          30          30          30          30          30
          31          31          32          32          33          33
          34          34          35          35          36          36
Primitive exponents                        R   N=         339
  3.04752490e+03  4.57369510e+02  1.03948690e+02  2.92101550e+01  9.28666300e+00
  3.16392700e+00  7.86827240e+00  1.88128850e+00  5.44249300e-01  7.86827240e+00
  1.88128850e+00  5.44249300e-01  1.68714400e-01  1.68714400e-01  8.00000000e-01
  4.38000000e-02  4.38000000e-02  3.04752490e+03  4.57369510e+02  1.03948690e+02
  2.92101550e+01  9.28666300e+00  3.16392700e+00  7.86827240e+00  1.88128850e+00
  5.44249300e-01  7.86827240e+00  1.88128850e+00  5.44249300e-01  1.68714400e-01
  1.68714400e-01  8.00000000e-01  4.38000000e-02  4.38000000e-02  3.04752490e+03
  4.57369510e+02  1.03948690e+02  2.92101550e+01  9.28666300e+00  3.16392700e+00
  7.86827240e+00  1.88128850e+00  5.44249300e-01  7.86827240e+00  1.88128850e+00
  5.44249300e-01  1.68714400e-01  1.68714400e-01  8.00000000e-01  4.38000000e-02
  4.38000000e-02  3.04752490e+03  4.57369510e+02  1.03948690e+02  2.92101550e+01
  9.28666300e+00  3.16392700e+00  7.86827240e+00  1.88128850e+00  5.44249300e-01
  7.86827240e+00  1.88128850e+00  5.44249300e-01  1.68714400e-01  1.68714400e-01
  8.00000000e-01  4.38000000e-02  4.38000000e-02  3.04752490e+03  4.57369510e+02
  1.03948690e+02  2.92101550e+01  9.28666300e+00  3.16392700e+00  7.86827240e+00
  1.88128850e+00  5.44249300e-01  7.86827240e+00  1.88128850e+00  5.44249300e-01
  1.68714400e-01  1.68714400e-01  8.00000000e-01  4.38000000e-02  4.38000000e-02
  3.04752490e+03  4.57369510e+02  1.03948690e+02  2.92101550e+01  9.28666300e+00
  3.16392700e+00  7.86827240e+00  1.88128850e+00  5.44249300e-01  7.86827240e+00
  1.88128850e+00  5.44249300e-01  1.68714400e-01  1.68714400e-01  8.00000000e-01
  4.38000000e-02  4.38000000e-02  3.04752490e+03  4.57369510e+02  1.03948690e+02
  2.92101550e+01  9.28666300e+00  3.16392700e+00  7.86827240e+00  1.88128850e+00
  5.44249300e-01  7.86827240e+00  1.88128850e+00  5.44249300e-01  1.68714400e-01
  1.68714400e-01  8.00000000e-01  4.38000000e-02  4.38000000e-02  3.04752490e+03
  4.57369510e+02  1.03948690e+02  2.92101550e+01  9.28666300e+00  3.16392700e+00
  7.86827240e+00  1.88128850e+00  5.44249300e-01  7.86827240e+00  1.88128850e+00
  5.44249300e-01  1.68714400e-01  1.68714400e-01  8.00000000e-01  4.38000000e-02
  4.38000000e-02  3.04752490e+03  4.57369510e+02  1.03948690e+02  2.92101550e+01
  9.28666300e+00  3.16392700e+00  7.86827240e+00  1.88128850e+00  5.44249300e-01
  7.86827240e+00  1.88128850e+00  5.44249300e-01  1.68714400e-01  1.68714400e-01
  8.00000000e-01  4.38000000e-02  4.38000000e-02  3.04752490e+03  4.57369510e+02
  1.03948690e+02  2.92101550e+01  9.28666300e+00  3.16392700e+00  7.86827240e+00
  1.88128850e+00  5.44249300e-01  7.86827240e+00  1.88128850e+00  5.44249300e-01
  1.68714400e-01  1.68714400e-01  8.00000000e-01  4.38000000e-02  4.38000000e-02
  3.04752490e+03  4.57369510e+02  1.03948690e+02  2.92101550e+01  9.28666300e+00
  3.16392700e+00  7.86827240e+00  1.88128850e+00  5.44249300e-01  7.86827240e+00
  1.88128850e+00  5.44249300e-01  1.68714400e-01  1.68714400e-01  8.00000000e-01
  4.38000000e-02  4.38000000e-02  3.04752490e+03  4.57369510e+02  1.03948690e+02
  2.92101550e+01  9.28666300e+00  3.16392700e+00  7.86827240e+00  1.88128850e+00
  5.44249300e-01  7.86827240e+00  1.88128850e+00  5.44249300e-01  1.68714400e-01
  1.68714400e-01  8.00000000e-01  4.38000000e-02  4.38000000e-02  1.87311370e+01
  2.82539370e+00  6.40121700e-01  1.61277800e-01  1.87311370e+01  2.82539370e+00
  6.40121700e-01  1.61277800e-01  1.87311370e+01  2.82539370e+00  6.40121700e-01
  1.61277800e-01  1.87311370e+01  2.82539370e+00  6.40121700e-01  1.61277800e-01
  1.87311370e+01  2.82539370e+00  6.40121700e-01  1.61277800e-01  1.87311370e+01
  2.82539370e+00  6.40121700e-01  1.61277800e-01  1.87311370e+01  2.82539370e+00
  6.40121700e-01  1.61277800e-01  1.87311370e+01  2.82539370e+00  6.40121700e-01
  1.61277800e-01  1.87311370e+01  2.82539370e+00  6.40121700e-01  1.61277800e-01
  1.87311370e+01  2.82539370e+00  6.40121700e-01  1.61277800e-01  1.87311370e+01
  2.82539370e+00  6.40121700e-01  1.61277800e-01  1.87311370e+01  2.82539370e+00
  6.40121700e-01  1.61277800e-01  1.87311370e+01  2.82539370e+00  6.40121700e-01
  1.61277800e-01  1.87311370e+01  2.82539370e+00  6.40121700e-01  1.61277800e-01
  1.87311370e+01  2.82539370e+00  6.40121700e-01  1.61277800e-01  4.17351100e+03
  6.27457900e+02  1.42902100e+02  4.02343300e+01  1.28202100e+01  4.39043700e+00
  1.16263580e+01  2.71628000e+00  7.72218000e-01  1.16263580e+01  2.71628000e+00
  7.72218000e-01  2.12031300e-01  2.12031300e-01  8.00000000e-01  6.39000000e-02
  6.39000000e-02  3.04752490e+03  4.57369510e+02  1.03948690e+02  2.92101550e+01
  9.28666300e+00  3.16392700e+00  7.86827240e+00  1.88128850e+00  5.44249300e-01
  7.86827240e+00  1.88128850e+00  5.44249300e-01  1.68714400e-01  1.68714400e-01
  8.00000000e-01  4.38000000e-02  4.38000000e-02  3.04752490e+03  4.57369510e+02
  1.03948690e+02  2.92101550e+01  9.28666300e+00  3.16392700e+00  7.86827240e+00
  1.88128850e+00  5.44249300e-01  7.86827240e+00  1.88128850e+00  5.44249300e-01
  1.68714400e-01  1.68714400e-01  8.00000000e-01  4.38000000e-02  4.38000000e-02
  1.87311370e+01  2.82539370e+00  6.40121700e-01  1.61277800e-01  1.87311370e+01
  2.82539370e+00  6.40121700e-01  1.61277800e-01  1.87311370e+01  2.82539370e+00
  6.40121700e-01  1.61277800e-01  1.87311370e+01  2.82539370e+00  6.40121700e-01
  1.61277800e-01  1.87311370e+01  2.82539370e+00  6.40121700e-01  1.61277800e-01
  1.87311370e+01  2.82539370e+00  6.40121700e-01  1.61277800e-01
Contraction coefficients                   R   N=         339
  1.83470016e-03  1.40373012e-02  6.88426061e-02  2.32184421e-01  4.67941342e-01
  3.62312032e-01 -1.19332409e-01 -1.60854212e-01  1.14345648e+00  6.89990956e-02
  3.16423980e-01  7.44308252e-01  1.00000000e+00  1.00000000e+00  1.00000000e+00
  1.00000000e+00  1.00000000e+00  1.83470016e-03  1.40373012e-02  6.88426061e-02
  2.32184421e-01  4.67941342e-01  3.62312032e-01 -1.19332409e-01 -1.60854212e-01
  1.14345648e+00  6.89990956e-02  3.16423980e-01  7.44308252e-01  1.00000000e+00
  1.00000000e+00  1.00000000e+00  1.00000000e+00  1.00000000e+00  1.83470016e-03
  1.40373012e-02  6.88426061e-02  2.32184421e-01  4.67941342e-01  3.62312032e-01
 -1.19332409e-01 -1.60854212e-01  1.14345648e+00  6.89990956e-02  3.16423980e-01
  7.44308252e-01  1.00000000e+00  1.00000000e+00  1.00000000e+00  1.00000000e+00
  1.00000000e+00  1.83470016e-03  1.40373012e-02  6.88426061e-02  2.32184421e-01
  4.67941342e-01  3.62312032e-01 -1.19332409e-01 -1.60854212e-01  1.14345648e+00
  6.89990956e-02  3.16423980e-01  7.44308252e-01  1.00000000e+00  1.00000000e+00
  1.00000000e+00  1.00000000e+00  1.00000000e+00  1.83470016e-03  1.40373012e-02
  6.88426061e-02  2.32184421e-01  4.67941342e-01  3.62312032e-01 -1.19332409e-01
 -1.60854212e-01  1.14345648e+00  6.89990956e-02  3.16423980e-01  7.44308252e-01
  1.00000000e+00  1.00000000e+00  1.00000000e+00  1.00000000e+00  1.00000000e+00
  1.83470016e-03  1.40373012e-02  6.88426061e-02  2.32184421e-01  4.67941342e-01
  3.62312032e-01 -1.19332409e-01 -1.60854212e-01  1.14345648e+00  6.89990956e-02
  3.16423980e-01  7.44308252e-01  1.00000000e+00  1.00000000e+00  1.00000000e+00
  1.00000000e+00  1.00000000e+00  1.83470016e-03  1.40373012e-02  6.88426061e-02
  2.32184421e-01  4.67941342e-01  3.62312032e-01 -1.19332409e-01 -1.60854212e-01
  1.14345648e+00  6.89990956e-02  3.16423980e-01  7.44308252e-01  1.00000000e+00
  1.00000000e+00  1.00000000e+00  1.00000000e+00  1.00000000e+00  1.83470016e-03
  1.40373012e-02  6.88426061e-02  2.32184421e-01  4.67941342e-01  3.62312032e-01
 -1.19332409e-01 -1.60854212e-01  1.14345648e+00  6.89990956e-02  3.16423980e-01
  7.44308252e-01  1.00000000e+00  1.00000000e+00  1.00000000e+00  1.00000000e+00
  1.00000000e+00  1.83470016e-03  1.40373012e-02  6.88426061e-02  2.32184421e-01
  4.67941342e-01  3.62312032e-01 -1.19332409e-01 -1.60854212e-01  1.14345648e+00
  6.89990956e-02  3.16423980e-01  7.44308252e-01  1.00000000e+00  1.00000000e+00
  1.00000000e+00  1.00000000e+00  1.00000000e+00  1.83470016e-03  1.40373012e-02
  6.88426061e-02  2.32184421e-01  4.67941342e-01  3.62312032e-01 -1.19332409e-01
 -1.60854212e-01  1.14345648e+00  6.89990956e-02  3.16423980e-01  7.44308252e-01
  1.00000000e+00  1.00000000e+00  1.00000000e+00  1.00000000e+00  1.00000000e+00
  1.83470016e-03  1.40373012e-02  6.88426061e-02  2.32184421e-01  4.67941342e-01
  3.62312032e-01 -1.19332409e-01 -1.60854212e-01  1.14345648e+00  6.89990956e-02
  3.16423980e-01  7.44308252e-01  1.00000000e+00  1.00000000e+00  1.00000000e+00
  1.00000000e+00  1.00000000e+00  1.83470016e-03  1.40373012e-02  6.88426061e-02
  2.32184421e-01  4.67941342e-01  3.62312032e-01 -1.19332409e-01 -1.60854212e-01
  1.14345648e+00  6.89990956e-02  3.16423980e-01  7.44308252e-01  1.00000000e+00
  1.00000000e+00  1.00000000e+00  1.00000000e+00  1.00000000e+00  3.34945995e-02
  2.34726947e-01  8.13757318e-01  1.00000000e+00  3.34945995e-02  2.34726947e-01
  8.13757318e-01  1.00000000e+00  3.34945995e-02  2.34726947e-01  8.13757318e-01
  1.00000000e+00  3.34945995e-02  2.34726947e-01  8.13757318e-01  1.00000000e+00
  3.34945995e-02  2.34726947e-01  8.13757318e-01  1.00000000e+00  3.34945995e-02
  2.34726947e-01  8.13757318e-01  1.00000000e+00  3.34945995e-02  2.34726947e-01
  8.13757318e-01  1.00000000e+00  3.34945995e-02  2.34726947e-01  8.13757318e-01
  1.00000000e+00  3.34945995e-02  2.34726947e-01  8.13757318e-01  1.00000000e+00
  3.34945995e-02  2.34726947e-01  8.13757318e-01  1.00000000e+00  3.34945995e-02
  2.34726947e-01  8.13757318e-01  1.00000000e+00  3.34945995e-02  2.34726947e-01
  8.13757318e-01  1.00000000e+00  3.34945995e-02  2.34726947e-01  8.13757318e-01
  1.00000000e+00  3.34945995e-02  2.34726947e-01  8.13757318e-01  1.00000000e+00
  3.34945995e-02  2.34726947e-01  8.13757318e-01  1.00000000e+00  1.83479944e-03
  1.39949958e-02  6.85869792e-02  2.32240930e-01  4.69069858e-01  3.60454891e-01
 -1.14961023e-01 -1.69118034e-01  1.14585223e+00  6.75800232e-02  3.23907111e-01
  7.40895255e-01  1.00000000e+00  1.00000000e+00  1.00000000e+00  1.00000000e+00
  1.00000000e+00  1.83470016e-03  1.40373012e-02  6.88426061e-02  2.32184421e-01
  4.67941342e-01  3.62312032e-01 -1.19332409e-01 -1.60854212e-01  1.14345648e+00
  6.89990956e-02  3.16423980e-01  7.44308252e-01  1.00000000e+00  1.00000000e+00
  1.00000000e+00  1.00000000e+00  1.00000000e+00  1.83470016e-03  1.40373012e-02
  6.88426061e-02  2.32184421e-01  4.67941342e-01  3.62312032e-01 -1.19332409e-01
 -1.60854212e-01  1.14345648e+00  6.89990956e-02  3.16423980e-01  7.44308252e-01
  1.00000000e+00  1.00000000e+00  1.00000000e+00  1.00000000e+00  1.00000000e+00
  3.34945995e-02  2.34726947e-01  8.13757318e-01  1.00000000e+00  3.34945995e-02
  2.34726947e-01  8.13757318e-01  1.00000000e+00  3.34945995e-02  2.34726947e-01
  8.13757318e-01  1.00000000e+00  3.34945995e-02  2.34726947e-01  8.13757318e-01
  1.00000000e+00  3.34945995e-02  2.34726947e-01  8.13757318e-01  1.00000000e+00
  3.34945995e-02  2.34726947e-01  8.13757318e-01  1.00000000e+00
Coordinates of each shell                  R   N=         486
 -6.25171704e+00 -1.55840864e+00 -2.65358674e-01 -6.25171704e+00 -1.55840864e+00
 -2.65358674e-01 -6.25171704e+00 -1.55840864e+00 -2.65358674e-01 -6.25171704e+00
 -1.55840864e+00 -2.65358674e-01 -6.25171704e+00 -1.55840864e+00 -2.65358674e-01
 -6.25171704e+00 -1.55840864e+00 -2.65358674e-01 -6.25171704e+00 -1.55840864e+00
 -2.65358674e-01 -6.25171704e+00 -1.55840864e+00 -2.65358674e-01 -4.42607995e+00
 -2.84229797e+00  1.58882756e+00 -4.42607995e+00 -2.84229797e+00  1.58882756e+00
 -4.42607995e+00 -2.84229797e+00  1.58882756e+00 -4.42607995e+00 -2.84229797e+00
  1.58882756e+00 -4.42607995e+00 -2.84229797e+00  1.58882756e+00 -4.42607995e+00
 -2.84229797e+00  1.58882756e+00 -4.42607995e+00 -2.84229797e+00  1.58882756e+00
 -4.42607995e+00 -2.84229797e+00  1.58882756e+00 -1.63836123e+00 -2.57033835e+00
  7.78413231e-01 -1.63836123e+00 -2.57033835e+00  7.78413231e-01 -1.63836123e+00
 -2.57033835e+00  7.78413231e-01 -1.63836123e+00 -2.57033835e+00  7.78413231e-01
 -1.63836123e+00 -2.57033835e+00  7.78413231e-01 -1.63836123e+00 -2.57033835e+00
  7.78413231e-01 -1.63836123e+00 -2.57033835e+00  7.78413231e-01 -1.63836123e+00
 -2.57033835e+00  7.78413231e-01 -7.44312198e-01  1.36939182e-01  2.85931480e-02
 -7.44312198e-01  1.36939182e-01  2.85931480e-02 -7.44312198e-01  1.36939182e-01
  2.85931480e-02 -7.44312198e-01  1.36939182e-01  2.85931480e-02 -7.44312198e-01
  1.36939182e-01  2.85931480e-02 -7.44312198e-01  1.36939182e-01  2.85931480e-02
 -7.44312198e-01  1.36939182e-01  2.85931480e-02 -7.44312198e-01  1.36939182e-01
  2.85931480e-02  3.98209633e+00 -7.58299176e-01  1.22506524e-01  3.98209633e+00
 -7.58299176e-01  1.22506524e-01  3.98209633e+00 -7.58299176e-01  1.22506524e-01
  3.98209633e+00 -7.58299176e-01  1.22506524e-01  3.98209633e+00 -7.58299176e-01
  1.22506524e-01  3.98209633e+00 -7.58299176e-01  1.22506524e-01  3.98209633e+00
 -7.58299176e-01  1.22506524e-01  3.98209633e+00 -7.58299176e-01  1.22506524e-01
  1.84137371e+00 -1.56150219e-01 -1.33456966e+00  1.84137371e+00 -1.56150219e-01
 -1.33456966e+00  1.84137371e+00 -1.56150219e-01 -1.33456966e+00  1.84137371e+00
 -1.56150219e-01 -1.33456966e+00  1.84137371e+00 -1.56150219e-01 -1.33456966e+00
  1.84137371e+00 -1.56150219e-01 -1.33456966e+00  1.84137371e+00 -1.56150219e-01
 -1.33456966e+00  1.84137371e+00 -1.56150219e-01 -1.33456966e+00  6.34162698e+00
 -1.14562947e+00 -9.85610832e-01  6.34162698e+00 -1.14562947e+00 -9.85610832e-01
  6.34162698e+00 -1.14562947e+00 -9.85610832e-01  6.34162698e+00 -1.14562947e+00
 -9.85610832e-01  6.34162698e+00 -1.14562947e+00 -9.85610832e-01  6.34162698e+00
 -1.14562947e+00 -9.85610832e-01  6.34162698e+00 -1.14562947e+00 -9.85610832e-01
  6.34162698e+00 -1.14562947e+00 -9.85610832e-01  6.64031424e+00 -9.12746600e-01
 -3.60198613e+00  6.64031424e+00 -9.12746600e-01 -3.60198613e+00  6.64031424e+00
 -9.12746600e-01 -3.60198613e+00  6.64031424e+00 -9.12746600e-01 -3.60198613e+00
  6.64031424e+00 -9.12746600e-01 -3.60198613e+00  6.64031424e+00 -9.12746600e-01
 -3.60198613e+00  6.64031424e+00 -9.12746600e-01 -3.60198613e+00  6.64031424e+00
 -9.12746600e-01 -3.60198613e+00 -5.48012857e+00  1.19694922e+00 -7.42748340e-01
 -5.48012857e+00  1.19694922e+00 -7.42748340e-01 -5.48012857e+00  1.19694922e+00
 -7.42748340e-01 -5.48012857e+00  1.19694922e+00 -7.42748340e-01 -5.48012857e+00
  1.19694922e+00 -7.42748340e-01 -5.48012857e+00  1.19694922e+00 -7.42748340e-01
 -5.48012857e+00  1.19694922e+00 -7.42748340e-01 -5.48012857e+00  1.19694922e+00
 -7.42748340e-01 -2.76041523e+00  1.32844371e+00 -1.74842248e+00 -2.76041523e+00
  1.32844371e+00 -1.74842248e+00 -2.76041523e+00  1.32844371e+00 -1.74842248e+00
 -2.76041523e+00  1.32844371e+00 -1.74842248e+00 -2.76041523e+00  1.32844371e+00
 -1.74842248e+00 -2.76041523e+00  1.32844371e+00 -1.74842248e+00 -2.76041523e+00
  1.32844371e+00 -1.74842248e+00 -2.76041523e+00  1.32844371e+00 -1.74842248e+00
  2.17495386e+00  6.75308659e-02 -3.95534740e+00  2.17495386e+00  6.75308659e-02
 -3.95534740e+00  2.17495386e+00  6.75308659e-02 -3.95534740e+00  2.17495386e+00
  6.75308659e-02 -3.95534740e+00  2.17495386e+00  6.75308659e-02 -3.95534740e+00
  2.17495386e+00  6.75308659e-02 -3.95534740e+00  2.17495386e+00  6.75308659e-02
 -3.95534740e+00  2.17495386e+00  6.75308659e-02 -3.95534740e+00  4.54585957e+00
 -2.96478035e-01 -5.07617004e+00  4.54585957e+00 -2.96478035e-01 -5.07617004e+00
  4.54585957e+00 -2.96478035e-01 -5.07617004e+00  4.54585957e+00 -2.96478035e-01
 -5.07617004e+00  4.54585957e+00 -2.96478035e-01 -5.07617004e+00  4.54585957e+00
 -2.96478035e-01 -5.07617004e+00  4.54585957e+00 -2.96478035e-01 -5.07617004e+00
  4.54585957e+00 -2.96478035e-01 -5.07617004e+00 -6.75629505e+00  2.06517986e+00
 -2.13043247e+00 -6.75629505e+00  2.06517986e+00 -2.13043247e+00 -5.67709387e+00
  2.30242247e+00  1.00025885e+00 -5.67709387e+00  2.30242247e+00  1.00025885e+00
 -1.33871071e+00 -3.76558659e+00 -8.90711284e-01 -1.33871071e+00 -3.76558659e+00
 -8.90711284e-01 -3.80452044e-01 -3.32070005e+00  2.24563049e+00 -3.80452044e-01
 -3.32070005e+00  2.24563049e+00 -6.24007362e+00 -2.58335206e+00 -2.07607481e+00
 -6.24007362e+00 -2.58335206e+00 -2.07607481e+00 -8.19309778e+00 -1.66095781e+00
  4.59891695e-01 -8.19309778e+00 -1.66095781e+00  4.59891695e-01  4.73965897e+00
 -9.10723202e-02 -7.11199355e+00  4.73965897e+00 -9.10723202e-02 -7.11199355e+00
  7.95517785e+00 -1.61448462e+00  1.98366485e-01  7.95517785e+00 -1.61448462e+00
  1.98366485e-01 -4.86741009e+00 -4.86546704e+00  1.73536928e+00 -4.86741009e+00
 -4.86546704e+00  1.73536928e+00 -4.72539993e+00 -2.05252788e+00  3.47880109e+00
 -4.72539993e+00 -2.05252788e+00  3.47880109e+00  8.47974429e+00 -1.19857897e+00
 -4.47153554e+00  8.47974429e+00 -1.19857897e+00 -4.47153554e+00  6.01328188e-01
  5.43720627e-01 -5.17818411e+00  6.01328188e-01  5.43720627e-01 -5.17818411e+00
  3.78152788e+00 -8.76193210e-01  2.15975501e+00  3.78152788e+00 -8.76193210e-01
  2.15975501e+00 -2.75172133e+00  3.23312804e-01 -3.56267254e+00 -2.75172133e+00
  3.23312804e-01 -3.56267254e+00 -2.22130688e+00  3.29126740e+00 -2.16223742e+00
 -2.22130688e+00  3.29126740e+00 -2.16223742e+00 -2.10357807e-01  1.73036771e+00
  2.27165328e+00 -2.10357807e-01  1.73036771e+00  2.27165328e+00 -2.10357807e-01
  1.73036771e+00  2.27165328e+00 -2.10357807e-01  1.73036771e+00  2.27165328e+00
 -2.10357807e-01  1.73036771e+00  2.27165328e+00 -2.10357807e-01  1.73036771e+00
  2.27165328e+00 -2.10357807e-01  1.73036771e+00  2.27165328e+00 -2.10357807e-01
  1.73036771e+00  2.27165328e+00 -1.62484913e+00  1.67108024e+00  4.63984567e+00
 -1.62484913e+00  1.67108024e+00  4.63984567e+00 -1.62484913e+00  1.67108024e+00
  4.63984567e+00 -1.62484913e+00  1.67108024e+00  4.63984567e+00 -1.62484913e+00
  1.67108024e+00  4.63984567e+00 -1.62484913e+00  1.67108024e+00  4.63984567e+00
 -1.62484913e+00  1.67108024e+00  4.63984567e+00 -1.62484913e+00  1.67108024e+00
  4.63984567e+00 -4.18974021e-01  3.49697202e+00  6.53163512e+00 -4.18974021e-01
  3.49697202e+00  6.53163512e+00 -4.18974021e-01  3.49697202e+00  6.53163512e+00
 -4.18974021e-01  3.49697202e+00  6.53163512e+00 -4.18974021e-01  3.49697202e+00
  6.53163512e+00 -4.18974021e-01  3.49697202e+00  6.53163512e+00 -4.18974021e-01
  3.49697202e+00  6.53163512e+00 -4.18974021e-01  3.49697202e+00  6.53163512e+00
 -1.53362217e+00 -2.45896783e-01  5.41582320e+00 -1.53362217e+00 -2.45896783e-01
  5.41582320e+00 -3.64804214e+00  2.14921074e+00  4.45333130e+00 -3.64804214e+00
  2.14921074e+00  4.45333130e+00  1.56356288e+00  3.00462029e+00  6.86928920e+00
  1.56356288e+00  3.00462029e+00  6.86928920e+00 -1.43348572e+00  3.44824424e+00