Generated by Psi4
     FORCE                           RHF                       TESTBAS
Number of atoms                            I               34
Charge                                     I                0
Multiplicity                               I                1
Number of electrons                        I              126
Number of alpha electrons                  I               63
Number of beta electrons                   I               63
Number of basis functions                  I              357
Number of independent functions            I              357
Atomic numbers                             I   N=          34
           6           6           6           7           6           6
           6           6           6           1           1           1
           6           1           1           6           1           8
           6           1           1           1           6           1
           1           1           8           8           1           1
           1           6           1           1
Nuclear charges                            R   N=          34
  6.00000000e+00  6.00000000e+00  6.00000000e+00  7.00000000e+00  6.00000000e+00
  6.00000000e+00  6.00000000e+00  6.00000000e+00  6.00000000e+00  1.00000000e+00
  1.00000000e+00  1.00000000e+00  6.00000000e+00  1.00000000e+00  1.00000000e+00
  6.00000000e+00  1.00000000e+00  8.00000000e+00  6.00000000e+00  1.00000000e+00
  1.00000000e+00  1.00000000e+00  6.00000000e+00  1.00000000e+00  1.00000000e+00
  1.00000000e+00  8.00000000e+00  8.00000000e+00  1.00000000e+00  1.00000000e+00
  1.00000000e+00  6.00000000e+00  1.00000000e+00  1.00000000e+00
Current cartesian coordinates              R   N=         102
 -2.87007721e-01 -5.90421787e-01 -7.45187341e-01 -2.80219330e+00  5.70796389e-01
 -1.48699583e-01 -3.31206573e+00  1.82156381e+00  2.42855778e+00 -2.84729861e+00
 -1.92819323e-02  4.45027502e+00  1.92625504e+00 -3.59463755e-02  6.08625537e-01
  4.27170960e+00 -1.10975508e+00 -2.85594369e-02  4.29675178e+00 -2.75963544e+00
 -2.05239918e+00  2.10518130e+00 -3.32609788e+00 -3.41173076e+00 -1.97898420e-01
 -2.27734195e+00 -2.82369611e+00  1.87854069e+00  1.30701268e+00  2.15601554e+00
 -1.90437057e+00 -2.69912276e+00 -3.87576189e+00  5.98126317e+00 -6.63936076e-01
  1.01179008e+00 -2.00426190e+00  4.46433533e+00  2.68579468e+00 -5.35940289e+00
  2.12881274e+00  2.40786648e+00 -5.91055262e-01  4.37142468e+00  4.20832077e+00
 -3.86140256e+00  6.63013320e+00  3.22750673e+00 -9.54358489e-01  4.92050466e+00
  9.53136206e-01 -4.50006885e+00  5.13850056e-01 -1.72131976e+00 -3.93585752e+00
  6.45588731e-01  6.89727684e+00 -9.73500039e-01 -4.01197747e-01  4.63200988e+00
 -4.92976311e+00  6.20714194e+00  4.95727357e+00 -5.25616977e+00  6.71612434e+00
  1.69164759e+00 -2.55451622e+00  9.20102211e+00  3.49664830e+00 -5.99482154e+00
  7.81037207e-01  6.71149785e+00 -3.24408224e+00  2.44388093e+00  7.70180337e+00
 -3.52202380e+00 -8.65725746e-01  8.24919280e+00  2.66904578e+00 -5.07199879e+00
 -5.25885949e+00  6.29069041e+00 -4.10619016e+00 -3.00831561e+00 -1.18812539e+00
  9.19117919e+00  5.05781162e+00 -3.92715297e+00  1.07070379e+01  3.87266318e+00
 -1.52665468e+00  9.70377832e+00  1.76669093e+00  5.36858480e+00 -5.23056857e+00
 -5.30606993e+00  6.10121620e+00 -4.15884119e+00 -6.92556614e+00  5.94238399e+00
 -7.21021246e+00 -5.37238269e+00
Integer atomic weights                     I   N=          34
          12          12          12          14          12          12
          12          12          12           1           1           1
          12           1           1          12           1          15
          12           1           1           1          12           1
           1           1          15          15           1           1
           1          12           1           1
Real atomic weights                        R   N=          34
  1.20000000e+01  1.20000000e+01  1.20000000e+01  1.40030740e+01  1.20000000e+01
  1.20000000e+01  1.20000000e+01  1.20000000e+01  1.20000000e+01  1.00782503e+00
  1.00782503e+00  1.00782503e+00  1.20000000e+01  1.00782503e+00  1.00782503e+00
  1.20000000e+01  1.00782503e+00  1.59949146e+01  1.20000000e+01  1.00782503e+00
  1.00782503e+00  1.00782503e+00  1.20000000e+01  1.00782503e+00  1.00782503e+00
  1.00782503e+00  1.59949146e+01  1.59949146e+01  1.00782503e+00  1.00782503e+00
  1.00782503e+00  1.20000000e+01  1.00782503e+00  1.00782503e+00
Number of primitive shells                 I              357
Number of contracted shells                I              170
Pure/Cartesian d shells                    I                1
Pure/Cartesian f shells                    I                1
Highest angular momentum                   I                2
Largest degree of contraction              I                6
Shell types                                I   N=         170
           0           0           1           0           1           2
           0           1           0           0           1           0
           1           2           0           1           0           0
           1           0           1           2           0           1
           0           0           1           0           1           2
           0           1           0           0           1           0
           1           2           0           1           0           0
           1           0           1           2           0           1
           0           0           1           0           1           2
           0           1           0           0           1           0
           1           2           0           1           0           0
           1           0           1           2           0           1
           0           0           0           0           0           0
           0           0           1           0           1           2
           0           1           0           0           0           0
           0           0           1           0           1           2
           0           1           0           0           0           0
           1           0           1           2           0           1
           0           0           1           0           1           2
           0           1           0           0           0           0
           0           0           0           0           1           0
           1           2           0           1           0           0
           0           0           0           0           0           0
           1           0           1           2           0           1
           0           0           1           0           1           2
           0           1           0           0           0           0
           0           0           0           0           1           0
           1           2           0           1           0           0
           0           0
Number of primitives per shell             I   N=         170
           6           3           3           1           1           1
           1           1           6           3           3           1
           1           1           1           1           6           3
           3           1           1           1           1           1
           6           3           3           1           1           1
           1           1           6           3           3           1
           1           1           1           1           6           3
           3           1           1           1           1           1
           6           3           3           1           1           1
           1           1           6           3           3           1
           1           1           1           1           6           3
           3           1           1           1           1           1
           3           1           3           1           3           1
           6           3           3           1           1           1
           1           1           3           1           3           1
           6           3           3           1           1           1
           1           1           3           1           6           3
           3           1           1           1           1           1
           6           3           3           1           1           1
           1           1           3           1           3           1
           3           1           6           3           3           1
           1           1           1           1           3           1
           3           1           3           1           6           3
           3           1           1           1           1           1
           6           3           3           1           1           1
           1           1           3           1           3           1
           3           1           6           3           3           1
           1           1           1           1           3           1
           3           1
Shell to atom map                          I   N=         170
           1           1           1           1           1           1
           1           1           2           2           2           2
           2           2           2           2           3           3
           3           3           3           3           3           3
           4           4           4           4           4           4
           4           4           5           5           5           5
           5           5           5           5           6           6
           6           6           6           6           6           6
           7           7           7           7           7           7
           7           7           8           8           8           8
           8           8           8           8           9           9
           9           9           9           9           9           9
          10          10          11          11          12          12
          13          13          13          13          13          13
          13          13          14          14          15          15
          16          16          16          16          16          16
          16          16          17          17          18          18
          18          18          18          18          18          18
          19          19          19          19          19          19
          19          19          20          20          21          21
          22          22          23          23          23          23
          23          23          23          23          24          24
          25          25          26          26          27          27
          27          27          27          27          27          27
          28          28          28          28          28          28
          28          28          29          29          30          30
          31          31          32          32          32          32
          32          32          32          32          33          33
          34          34
Primitive exponents                        R   N=         357
  3.04752490e+03  4.57369510e+02  1.03948690e+02  2.92101550e+01  9.28666300e+00
  3.16392700e+00  7.86827240e+00  1.88128850e+00  5.44249300e-01  7.86827240e+00
  1.88128850e+00  5.44249300e-01  1.68714400e-01  1.68714400e-01  8.00000000e-01
  4.38000000e-02  4.38000000e-02  3.04752490e+03  4.57369510e+02  1.03948690e+02
  2.92101550e+01  9.28666300e+00  3.16392700e+00  7.86827240e+00  1.88128850e+00
  5.44249300e-01  7.86827240e+00  1.88128850e+00  5.44249300e-01  1.68714400e-01
  1.68714400e-01  8.00000000e-01  4.38000000e-02  4.38000000e-02  3.04752490e+03
  4.57369510e+02  1.03948690e+02  2.92101550e+01  9.28666300e+00  3.16392700e+00
  7.86827240e+00  1.88128850e+00  5.44249300e-01  7.86827240e+00  1.88128850e+00
  5.44249300e-01  1.68714400e-01  1.68714400e-01  8.00000000e-01  4.38000000e-02
  4.38000000e-02  4.17351100e+03  6.27457900e+02  1.42902100e+02  4.02343300e+01
  1.28202100e+01  4.39043700e+00  1.16263580e+01  2.71628000e+00  7.72218000e-01
  1.16263580e+01  2.71628000e+00  7.72218000e-01  2.12031300e-01  2.12031300e-01
  8.00000000e-01  6.39000000e-02  6.39000000e-02  3.04752490e+03  4.57369510e+02
  1.03948690e+02  2.92101550e+01  9.28666300e+00  3.16392700e+00  7.86827240e+00
  1.88128850e+00  5.44249300e-01  7.86827240e+00  1.88128850e+00  5.44249300e-01
  1.68714400e-01  1.68714400e-01  8.00000000e-01  4.38000000e-02  4.38000000e-02
  3.04752490e+03  4.57369510e+02  1.03948690e+02  2.92101550e+01  9.28666300e+00
  3.16392700e+00  7.86827240e+00  1.88128850e+00  5.44249300e-01  7.86827240e+00
  1.88128850e+00  5.44249300e-01  1.68714400e-01  1.68714400e-01  8.00000000e-01
  4.38000000e-02  4.38000000e-02  3.04752490e+03  4.57369510e+02  1.03948690e+02
  2.92101550e+01  9.28666300e+00  3.16392700e+00  7.86827240e+00  1.88128850e+00
  5.44249300e-01  7.86827240e+00  1.88128850e+00  5.44249300e-01  1.68714400e-01
  1.68714400e-01  8.00000000e-01  4.38000000e-02  4.38000000e-02  3.04752490e+03
  4.57369510e+02  1.03948690e+02  2.92101550e+01  9.28666300e+00  3.16392700e+00
  7.86827240e+00  1.88128850e+00  5.44249300e-01  7.86827240e+00  1.88128850e+00
  5.44249300e-01  1.68714400e-01  1.68714400e-01  8.00000000e-01  4.38000000e-02
  4.38000000e-02  3.04752490e+03  4.57369510e+02  1.03948690e+02  2.92101550e+01
  9.28666300e+00  3.16392700e+00  7.86827240e+00  1.88128850e+00  5.44249300e-01
  7.86827240e+00  1.88128850e+00  5.44249300e-01  1.68714400e-01  1.68714400e-01
  8.00000000e-01  4.38000000e-02  4.38000000e-02  1.87311370e+01  2.82539370e+00
  6.40121700e-01  1.61277800e-01  1.87311370e+01  2.82539370e+00  6.40121700e-01
  1.61277800e-01  1.87311370e+01  2.82539370e+00  6.40121700e-01  1.61277800e-01
  3.04752490e+03  4.57369510e+02  1.03948690e+02  2.92101550e+01  9.28666300e+00
  3.16392700e+00  7.86827240e+00  1.88128850e+00  5.44249300e-01  7.86827240e+00
  1.88128850e+00  5.44249300e-01  1.68714400e-01  1.68714400e-01  8.00000000e-01
  4.38000000e-02  4.38000000e-02  1.87311370e+01  2.82539370e+00  6.40121700e-01
  1.61277800e-01  1.87311370e+01  2.82539370e+00  6.40121700e-01  1.61277800e-01
  3.04752490e+03  4.57369510e+02  1.03948690e+02  2.92101550e+01  9.28666300e+00
  3.16392700e+00  7.86827240e+00  1.88128850e+00  5.44249300e-01  7.86827240e+00
  1.88128850e+00  5.44249300e-01  1.68714400e-01  1.68714400e-01  8.00000000e-01
  4.38000000e-02  4.38000000e-02  1.87311370e+01  2.82539370e+00  6.40121700e-01
  1.61277800e-01  5.48467170e+03  8.25234950e+02  1.88046960e+02  5.29645000e+01
  1.68975700e+01  5.79963530e+00  1.55396160e+01  3.59993360e+00  1.01376180e+00
  1.55396160e+01  3.59993360e+00  1.01376180e+00  2.70005800e-01  2.70005800e-01
  8.00000000e-01  8.45000000e-02  8.45000000e-02  3.04752490e+03  4.57369510e+02
  1.03948690e+02  2.92101550e+01  9.28666300e+00  3.16392700e+00  7.86827240e+00
  1.88128850e+00  5.44249300e-01  7.86827240e+00  1.88128850e+00  5.44249300e-01
  1.68714400e-01  1.68714400e-01  8.00000000e-01  4.38000000e-02  4.38000000e-02
  1.87311370e+01  2.82539370e+00  6.40121700e-01  1.61277800e-01  1.87311370e+01
  2.82539370e+00  6.40121700e-01  1.61277800e-01  1.87311370e+01  2.82539370e+00
  6.40121700e-01  1.61277800e-01  3.04752490e+03  4.57369510e+02  1.03948690e+02
  2.92101550e+01  9.28666300e+00  3.16392700e+00  7.86827240e+00  1.88128850e+00
  5.44249300e-01  7.86827240e+00  1.88128850e+00  5.44249300e-01  1.68714400e-01
  1.68714400e-01  8.00000000e-01  4.38000000e-02  4.38000000e-02  1.87311370e+01
  2.82539370e+00  6.40121700e-01  1.61277800e-01  1.87311370e+01  2.82539370e+00
  6.40121700e-01  1.61277800e-01  1.87311370e+01  2.82539370e+00  6.40121700e-01
  1.61277800e-01  5.48467170e+03  8.25234950e+02  1.88046960e+02  5.29645000e+01
  1.68975700e+01  5.79963530e+00  1.55396160e+01  3.59993360e+00  1.01376180e+00
  1.55396160e+01  3.59993360e+00  1.01376180e+00  2.70005800e-01  2.70005800e-01
  8.00000000e-01  8.45000000e-02  8.45000000e-02  5.48467170e+03  8.25234950e+02
  1.88046960e+02  5.29645000e+01  1.68975700e+01  5.79963530e+00  1.55396160e+01
  3.59993360e+00  1.01376180e+00  1.55396160e+01  3.59993360e+00  1.01376180e+00
  2.70005800e-01  2.70005800e-01  8.00000000e-01  8.45000000e-02  8.45000000e-02
  1.87311370e+01  2.82539370e+00  6.40121700e-01  1.61277800e-01  1.87311370e+01
  2.82539370e+00  6.40121700e-01  1.61277800e-01  1.87311370e+01  2.82539370e+00
  6.40121700e-01  1.61277800e-01  3.04752490e+03  4.57369510e+02  1.03948690e+02
  2.92101550e+01  9.28666300e+00  3.16392700e+00  7.86827240e+00  1.88128850e+00
  5.44249300e-01  7.86827240e+00  1.88128850e+00  5.44249300e-01  1.68714400e-01
  1.68714400e-01  8.00000000e-01  4.38000000e-02  4.38000000e-02  1.87311370e+01
  2.82539370e+00  6.40121700e-01  1.61277800e-01  1.87311370e+01  2.82539370e+00
  6.40121700e-01  1.61277800e-01
Contraction coefficients                   R   N=         357
  1.83470016e-03  1.40373012e-02  6.88426061e-02  2.32184421e-01  4.67941342e-01
  3.62312032e-01 -1.19332409e-01 -1.60854212e-01  1.14345648e+00  6.89990956e-02
  3.16423980e-01  7.44308252e-01  1.00000000e+00  1.00000000e+00  1.00000000e+00
  1.00000000e+00  1.00000000e+00  1.83470016e-03  1.40373012e-02  6.88426061e-02
  2.32184421e-01  4.67941342e-01  3.62312032e-01 -1.19332409e-01 -1.60854212e-01
  1.14345648e+00  6.89990956e-02  3.16423980e-01  7.44308252e-01  1.00000000e+00
  1.00000000e+00  1.00000000e+00  1.00000000e+00  1.00000000e+00  1.83470016e-03
  1.40373012e-02  6.88426061e-02  2.32184421e-01  4.67941342e-01  3.62312032e-01
 -1.19332409e-01 -1.60854212e-01  1.14345648e+00  6.89990956e-02  3.16423980e-01
  7.44308252e-01  1.00000000e+00  1.00000000e+00  1.00000000e+00  1.00000000e+00
  1.00000000e+00  1.83479944e-03  1.39949958e-02  6.85869792e-02  2.32240930e-01
  4.69069858e-01  3.60454891e-01 -1.14961023e-01 -1.69118034e-01  1.14585223e+00
  6.75800232e-02  3.23907111e-01  7.40895255e-01  1.00000000e+00  1.00000000e+00
  1.00000000e+00  1.00000000e+00  1.00000000e+00  1.83470016e-03  1.40373012e-02
  6.88426061e-02  2.32184421e-01  4.67941342e-01  3.62312032e-01 -1.19332409e-01
 -1.60854212e-01  1.14345648e+00  6.89990956e-02  3.16423980e-01  7.44308252e-01
  1.00000000e+00  1.00000000e+00  1.00000000e+00  1.00000000e+00  1.00000000e+00
  1.83470016e-03  1.40373012e-02  6.88426061e-02  2.32184421e-01  4.67941342e-01
  3.62312032e-01 -1.19332409e-01 -1.60854212e-01  1.14345648e+00  6.89990956e-02
  3.16423980e-01  7.44308252e-01  1.00000000e+00  1.00000000e+00  1.00000000e+00
  1.00000000e+00  1.00000000e+00  1.83470016e-03  1.40373012e-02  6.88426061e-02
  2.32184421e-01  4.67941342e-01  3.62312032e-01 -1.19332409e-01 -1.60854212e-01
  1.14345648e+00  6.89990956e-02  3.16423980e-01  7.44308252e-01  1.00000000e+00
  1.00000000e+00  1.00000000e+00  1.00000000e+00  1.00000000e+00  1.83470016e-03
  1.40373012e-02  6.88426061e-02  2.32184421e-01  4.67941342e-01  3.62312032e-01
 -1.19332409e-01 -1.60854212e-01  1.14345648e+00  6.89990956e-02  3.16423980e-01
  7.44308252e-01  1.00000000e+00  1.00000000e+00  1.00000000e+00  1.00000000e+00
  1.00000000e+00  1.83470016e-03  1.40373012e-02  6.88426061e-02  2.32184421e-01
  4.67941342e-01  3.62312032e-01 -1.19332409e-01 -1.60854212e-01  1.14345648e+00
  6.89990956e-02  3.16423980e-01  7.44308252e-01  1.00000000e+00  1.00000000e+00
  1.00000000e+00  1.00000000e+00  1.00000000e+00  3.34945995e-02  2.34726947e-01
  8.13757318e-01  1.00000000e+00  3.34945995e-02  2.34726947e-01  8.13757318e-01
  1.00000000e+00  3.34945995e-02  2.34726947e-01  8.13757318e-01  1.00000000e+00
  1.83470016e-03  1.40373012e-02  6.88426061e-02  2.32184421e-01  4.67941342e-01
  3.62312032e-01 -1.19332409e-01 -1.60854212e-01  1.14345648e+00  6.89990956e-02
  3.16423980e-01  7.44308252e-01  1.00000000e+00  1.00000000e+00  1.00000000e+00
  1.00000000e+00  1.00000000e+00  3.34945995e-02  2.34726947e-01  8.13757318e-01
  1.00000000e+00  3.34945995e-02  2.34726947e-01  8.13757318e-01  1.00000000e+00
  1.83470016e-03  1.40373012e-02  6.88426061e-02  2.32184421e-01  4.67941342e-01
  3.62312032e-01 -1.19332409e-01 -1.60854212e-01  1.14345648e+00  6.89990956e-02
  3.16423980e-01  7.44308252e-01  1.00000000e+00  1.00000000e+00  1.00000000e+00
  1.00000000e+00  1.00000000e+00  3.34945995e-02  2.34726947e-01  8.13757318e-01
  1.00000000e+00  1.83109981e-03  1.39500985e-02  6.84450927e-02  2.32714275e-01
  4.70192950e-01  3.58520862e-01 -1.10777504e-01 -1.48026305e-01  1.13076704e+00
  7.08742995e-02  3.39752798e-01  7.27158595e-01  1.00000000e+00  1.00000000e+00
  1.00000000e+00  1.00000000e+00  1.00000000e+00  1.83470016e-03  1.40373012e-02
  6.88426061e-02  2.32184421e-01  4.67941342e-01  3.62312032e-01 -1.19332409e-01
 -1.60854212e-01  1.14345648e+00  6.89990956e-02  3.16423980e-01  7.44308252e-01
  1.00000000e+00  1.00000000e+00  1.00000000e+00  1.00000000e+00  1.00000000e+00
  3.34945995e-02  2.34726947e-01  8.13757318e-01  1.00000000e+00  3.34945995e-02
  2.34726947e-01  8.13757318e-01  1.00000000e+00  3.34945995e-02  2.34726947e-01
  8.13757318e-01  1.00000000e+00  1.83470016e-03  1.40373012e-02  6.88426061e-02
  2.32184421e-01  4.67941342e-01  3.62312032e-01 -1.19332409e-01 -1.60854212e-01
  1.14345648e+00  6.89990956e-02  3.16423980e-01  7.44308252e-01  1.00000000e+00
  1.00000000e+00  1.00000000e+00  1.00000000e+00  1.00000000e+00  3.34945995e-02
  2.34726947e-01  8.13757318e-01  1.00000000e+00  3.34945995e-02  2.34726947e-01
  8.13757318e-01  1.00000000e+00  3.34945995e-02  2.34726947e-01  8.13757318e-01
  1.00000000e+00  1.83109981e-03  1.39500985e-02  6.84450927e-02  2.32714275e-01
  4.70192950e-01  3.58520862e-01 -1.10777504e-01 -1.48026305e-01  1.13076704e+00
  7.08742995e-02  3.39752798e-01  7.27158595e-01  1.00000000e+00  1.00000000e+00
  1.00000000e+00  1.00000000e+00  1.00000000e+00  1.83109981e-03  1.39500985e-02
  6.84450927e-02  2.32714275e-01  4.70192950e-01  3.58520862e-01 -1.10777504e-01
 -1.48026305e-01  1.13076704e+00  7.08742995e-02  3.39752798e-01  7.27158595e-01
  1.00000000e+00  1.00000000e+00  1.00000000e+00  1.00000000e+00  1.00000000e+00
  3.34945995e-02  2.34726947e-01  8.13757318e-01  1.00000000e+00  3.34945995e-02
  2.34726947e-01  8.13757318e-01  1.00000000e+00  3.34945995e-02  2.34726947e-01
  8.13757318e-01  1.00000000e+00  1.83470016e-03  1.40373012e-02  6.88426061e-02
  2.32184421e-01  4.67941342e-01  3.62312032e-01 -1.19332409e-01 -1.60854212e-01
  1.14345648e+00  6.89990956e-02  3.16423980e-01  7.44308252e-01  1.00000000e+00
  1.00000000e+00  1.00000000e+00  1.00000000e+00  1.00000000e+00  3.34945995e-02
  2.34726947e-01  8.13757318e-01  1.00000000e+00  3.34945995e-02  2.34726947e-01
  8.13757318e-01  1.00000000e+00
Coordinates of each shell                  R   N=         510
 -2.87007721e-01 -5.90421787e-01 -7.45187341e-01 -2.87007721e-01 -5.90421787e-01
 -7.45187341e-01 -2.87007721e-01 -5.90421787e-01 -7.45187341e-01 -2.87007721e-01
 -5.90421787e-01 -7.45187341e-01 -2.87007721e-01 -5.90421787e-01 -7.45187341e-01
 -2.87007721e-01 -5.90421787e-01 -7.45187341e-01 -2.87007721e-01 -5.90421787e-01
 -7.45187341e-01 -2.87007721e-01 -5.90421787e-01 -7.45187341e-01 -2.80219330e+00
  5.70796389e-01 -1.48699583e-01 -2.80219330e+00  5.70796389e-01 -1.48699583e-01
 -2.80219330e+00  5.70796389e-01 -1.48699583e-01 -2.80219330e+00  5.70796389e-01
 -1.48699583e-01 -2.80219330e+00  5.70796389e-01 -1.48699583e-01 -2.80219330e+00
  5.70796389e-01 -1.48699583e-01 -2.80219330e+00  5.70796389e-01 -1.48699583e-01
 -2.80219330e+00  5.70796389e-01 -1.48699583e-01 -3.31206573e+00  1.82156381e+00
  2.42855778e+00 -3.31206573e+00  1.82156381e+00  2.42855778e+00 -3.31206573e+00
  1.82156381e+00  2.42855778e+00 -3.31206573e+00  1.82156381e+00  2.42855778e+00
 -3.31206573e+00  1.82156381e+00  2.42855778e+00 -3.31206573e+00  1.82156381e+00
  2.42855778e+00 -3.31206573e+00  1.82156381e+00  2.42855778e+00 -3.31206573e+00
  1.82156381e+00  2.42855778e+00 -2.84729861e+00 -1.92819323e-02  4.45027502e+00
 -2.84729861e+00 -1.92819323e-02  4.45027502e+00 -2.84729861e+00 -1.92819323e-02
  4.45027502e+00 -2.84729861e+00 -1.92819323e-02  4.45027502e+00 -2.84729861e+00
 -1.92819323e-02  4.45027502e+00 -2.84729861e+00 -1.92819323e-02  4.45027502e+00
 -2.84729861e+00 -1.92819323e-02  4.45027502e+00 -2.84729861e+00 -1.92819323e-02
  4.45027502e+00  1.92625504e+00 -3.59463755e-02  6.08625537e-01  1.92625504e+00
 -3.59463755e-02  6.08625537e-01  1.92625504e+00 -3.59463755e-02  6.08625537e-01
  1.92625504e+00 -3.59463755e-02  6.08625537e-01  1.92625504e+00 -3.59463755e-02
  6.08625537e-01  1.92625504e+00 -3.59463755e-02  6.08625537e-01  1.92625504e+00
 -3.59463755e-02  6.08625537e-01  1.92625504e+00 -3.59463755e-02  6.08625537e-01
  4.27170960e+00 -1.10975508e+00 -2.85594369e-02  4.27170960e+00 -1.10975508e+00
 -2.85594369e-02  4.27170960e+00 -1.10975508e+00 -2.85594369e-02  4.27170960e+00
 -1.10975508e+00 -2.85594369e-02  4.27170960e+00 -1.10975508e+00 -2.85594369e-02
  4.27170960e+00 -1.10975508e+00 -2.85594369e-02  4.27170960e+00 -1.10975508e+00
 -2.85594369e-02  4.27170960e+00 -1.10975508e+00 -2.85594369e-02  4.29675178e+00
 -2.75963544e+00 -2.05239918e+00  4.29675178e+00 -2.75963544e+00 -2.05239918e+00
  4.29675178e+00 -2.75963544e+00 -2.05239918e+00  4.29675178e+00 -2.75963544e+00
 -2.05239918e+00  4.29675178e+00 -2.75963544e+00 -2.05239918e+00  4.29675178e+00
 -2.75963544e+00 -2.05239918e+00  4.29675178e+00 -2.75963544e+00 -2.05239918e+00
  4.29675178e+00 -2.75963544e+00 -2.05239918e+00  2.10518130e+00 -3.32609788e+00
 -3.41173076e+00  2.10518130e+00 -3.32609788e+00 -3.41173076e+00  2.10518130e+00
 -3.32609788e+00 -3.41173076e+00  2.10518130e+00 -3.32609788e+00 -3.41173076e+00
  2.10518130e+00 -3.32609788e+00 -3.41173076e+00  2.10518130e+00 -3.32609788e+00
 -3.41173076e+00  2.10518130e+00 -3.32609788e+00 -3.41173076e+00  2.10518130e+00
 -3.32609788e+00 -3.41173076e+00 -1.97898420e-01 -2.27734195e+00 -2.82369611e+00
 -1.97898420e-01 -2.27734195e+00 -2.82369611e+00 -1.97898420e-01 -2.27734195e+00
 -2.82369611e+00 -1.97898420e-01 -2.27734195e+00 -2.82369611e+00 -1.97898420e-01
 -2.27734195e+00 -2.82369611e+00 -1.97898420e-01 -2.27734195e+00 -2.82369611e+00
 -1.97898420e-01 -2.27734195e+00 -2.82369611e+00 -1.97898420e-01 -2.27734195e+00
 -2.82369611e+00  1.87854069e+00  1.30701268e+00  2.15601554e+00  1.87854069e+00
  1.30701268e+00  2.15601554e+00 -1.90437057e+00 -2.69912276e+00 -3.87576189e+00
 -1.90437057e+00 -2.69912276e+00 -3.87576189e+00  5.98126317e+00 -6.63936076e-01
  1.01179008e+00  5.98126317e+00 -6.63936076e-01  1.01179008e+00 -2.00426190e+00
  4.46433533e+00  2.68579468e+00 -2.00426190e+00  4.46433533e+00  2.68579468e+00
 -2.00426190e+00  4.46433533e+00  2.68579468e+00 -2.00426190e+00  4.46433533e+00
  2.68579468e+00 -2.00426190e+00  4.46433533e+00  2.68579468e+00 -2.00426190e+00
  4.46433533e+00  2.68579468e+00 -2.00426190e+00  4.46433533e+00  2.68579468e+00
 -2.00426190e+00  4.46433533e+00  2.68579468e+00 -5.35940289e+00  2.12881274e+00
  2.40786648e+00 -5.35940289e+00  2.12881274e+00  2.40786648e+00 -5.91055262e-01
  4.37142468e+00  4.20832077e+00 -5.91055262e-01  4.37142468e+00  4.20832077e+00
 -3.86140256e+00  6.63013320e+00  3.22750673e+00 -3.86140256e+00  6.63013320e+00
  3.22750673e+00 -3.86140256e+00  6.63013320e+00  3.22750673e+00 -3.86140256e+00
  6.63013320e+00  3.22750673e+00 -3.86140256e+00  6.63013320e+00  3.22750673e+00
 -3.86140256e+00  6.63013320e+00  3.22750673e+00 -3.86140256e+00  6.63013320e+00
  3.22750673e+00 -3.86140256e+00  6.63013320e+00  3.22750673e+00 -9.54358489e-01
  4.92050466e+00  9.53136206e-01 -9.54358489e-01  4.92050466e+00  9.53136206e-01
 -4.50006885e+00  5.13850056e-01 -1.72131976e+00 -4.50006885e+00  5.13850056e-01
 -1.72131976e+00 -4.50006885e+00  5.13850056e-01 -1.72131976e+00 -4.50006885e+00
  5.13850056e-01 -1.72131976e+00 -4.50006885e+00  5.13850056e-01 -1.72131976e+00
 -4.50006885e+00  5.13850056e-01 -1.72131976e+00 -4.50006885e+00  5.13850056e-01
 -1.72131976e+00 -4.50006885e+00  5.13850056e-01 -1.72131976e+00 -3.93585752e+00
  6.45588731e-01  6.89727684e+00 -3.93585752e+00  6.45588731e-01  6.89727684e+00
 -3.93585752e+00  6.45588731e-01  6.89727684e+00 -3.93585752e+00  6.45588731e-01
  6.89727684e+00 -3.93585752e+00  6.45588731e-01  6.89727684e+00 -3.93585752e+00
  6.45588731e-01  6.89727684e+00 -3.93585752e+00  6.45588731e-01  6.89727684e+00
 -3.93585752e+00  6.45588731e-01  6.89727684e+00 -9.73500039e-01 -4.01197747e-01
  4.63200988e+00 -9.73500039e-01 -4.01197747e-01  4.63200988e+00 -4.92976311e+00
  6.20714194e+00  4.95727357e+00 -4.92976311e+00  6.20714194e+00  4.95727357e+00
 -5.25616977e+00  6.71612434e+00  1.69164759e+00 -5.25616977e+00  6.71612434e+00
  1.69164759e+00 -2.55451622e+00  9.20102211e+00  3.49664830e+00 -2.55451622e+00
  9.20102211e+00  3.49664830e+00 -2.55451622e+00  9.20102211e+00  3.49664830e+00
 -2.55451622e+00  9.20102211e+00  3.49664830e+00 -2.55451622e+00  9.20102211e+00
  3.49664830e+00 -2.55451622e+00  9.20102211e+00  3.49664830e+00 -2.55451622e+00
  9.20102211e+00  3.49664830e+00 -2.55451622e+00  9.20102211e+00  3.49664830e+00
 -5.99482154e+00  7.81037207e-01  6.71149785e+00 -5.99482154e+00  7.81037207e-01
  6.71149785e+00 -3.24408224e+00  2.44388093e+00  7.70180337e+00 -3.24408224e+00
  2.44388093e+00  7.70180337e+00 -3.52202380e+00 -8.65725746e-01  8.24919280e+00
 -3.52202380e+00 -8.65725746e-01  8.24919280e+00  2.66904578e+00 -5.07199879e+00
 -5.25885949e+00  2.66904578e+00 -5.07199879e+00 -5.25885949e+00  2.66904578e+00
 -5.07199879e+00 -5.25885949e+00  2.66904578e+00 -5.07199879e+00 -5.25885949e+00
  2.66904578e+00 -5.07199879e+00 -5.25885949e+00  2.66904578e+00 -5.07199879e+00
 -5.25885949e+00  2.66904578e+00 -5.07199879e+00 -5.25885949e+00  2.66904578e+00