Generated by Psi4
     FORCE                           RHF                       TESTBAS
Number of atoms                            I               31
Charge                                     I                0
Multiplicity                               I                1
Number of electrons                        I              104
Number of alpha electrons                  I               52
Number of beta electrons                   I               52
Number of basis functions                  I              300
Number of independent functions            I              300
Atomic numbers                             I   N=          31
           6           6           6           7           6           6
           6           6           6           1           1           6
           1           6           1           8           1           1
           1           1           1           1           6           1
           1           6           1           1           1           1
           1
Nuclear charges                            R   N=          31
  6.00000000e+00  6.00000000e+00  6.00000000e+00  7.00000000e+00  6.00000000e+00
  6.00000000e+00  6.00000000e+00  6.00000000e+00  6.00000000e+00  1.00000000e+00
  1.00000000e+00  6.00000000e+00  1.00000000e+00  6.00000000e+00  1.00000000e+00
  8.00000000e+00  1.00000000e+00  1.00000000e+00  1.00000000e+00  1.00000000e+00
  1.00000000e+00  1.00000000e+00  6.00000000e+00  1.00000000e+00  1.00000000e+00
  6.00000000e+00  1.00000000e+00  1.00000000e+00  1.00000000e+00  1.00000000e+00
  1.00000000e+00
Current cartesian coordinates              R   N=          93
  5.53930098e-01 -1.72901187e+00 -8.79549398e-01 -1.90754763e+00 -3.56024498e-01
 -5.43893842e-01 -2.37449738e+00  1.49509220e+00  1.66533512e+00 -1.91085311e+00
  3.35347812e-01  4.14105335e+00  2.44932202e+00 -1.83644531e+00  9.80876858e-01
  4.69750767e+00 -3.13982829e+00  5.13570036e-01  5.08534227e+00 -4.34084471e+00
 -1.80539612e+00  3.20652285e+00 -4.24802294e+00 -3.66611749e+00  9.59135779e-01
 -2.95918840e+00 -3.20371247e+00  2.11799975e+00 -9.55228430e-01  2.79993030e+00
  6.14406437e+00 -3.22296710e+00  1.97005134e+00 -7.66569565e-01  3.91574149e+00
  1.38650550e+00 -4.38089205e+00  2.02432029e+00  1.43906299e+00 -3.71693613e+00
 -1.65201702e+00  4.80966403e+00 -1.95725148e+00  1.71951018e+00  5.47800646e+00
 -3.58896080e+00 -5.96346148e-01 -2.12009313e+00  3.49820246e+00 -5.18169811e+00
 -5.47264696e+00 -5.17267453e-01 -2.87476082e+00 -4.62517507e+00 -3.44941743e+00
 -3.28950933e+00  3.57073837e+00 -5.71119825e+00 -1.05442250e+00  4.65407807e+00
 -3.35693030e+00 -2.26830695e+00  6.75140741e+00  6.83879969e+00 -5.35088736e+00
 -2.16267190e+00 -1.20939912e+00  5.38561070e+00 -1.07482616e+00  1.24301859e+00
  3.43990823e+00  1.57275608e+00 -1.23368019e+00  5.14922844e+00  2.99646895e+00
  2.65596785e-01  7.87861104e+00 -1.15146202e+00 -3.23830733e+00  5.76647991e+00
 -1.29481306e+00 -6.66390745e-01  4.21759783e+00 -2.70071929e+00 -2.91758909e-01
  9.13300804e+00  4.04133554e-01 -7.08881785e-02  8.89147852e+00 -2.92719478e+00
  2.30726509e+00  7.54938630e+00 -9.91796553e-01
Integer atomic weights                     I   N=          31
          12          12          12          14          12          12
          12          12          12           1           1          12
           1          12           1          15           1           1
           1           1           1           1          12           1
           1          12           1           1           1           1
           1
Real atomic weights                        R   N=          31
  1.20000000e+01  1.20000000e+01  1.20000000e+01  1.40030740e+01  1.20000000e+01
  1.20000000e+01  1.20000000e+01  1.20000000e+01  1.20000000e+01  1.00782503e+00
  1.00782503e+00  1.20000000e+01  1.00782503e+00  1.20000000e+01  1.00782503e+00
  1.59949146e+01  1.00782503e+00  1.00782503e+00  1.00782503e+00  1.00782503e+00
  1.00782503e+00  1.00782503e+00  1.20000000e+01  1.00782503e+00  1.00782503e+00
  1.20000000e+01  1.00782503e+00  1.00782503e+00  1.00782503e+00  1.00782503e+00
  1.00782503e+00
Number of primitive shells                 I              306
Number of contracted shells                I              146
Pure/Cartesian d shells                    I                1
Pure/Cartesian f shells                    I                1
Highest angular momentum                   I                2
Largest degree of contraction              I                6
Shell types                                I   N=         146
           0           0           1           0           1           2
           0           1           0           0           1           0
           1           2           0           1           0           0
           1           0           1           2           0           1
           0           0           1           0           1           2
           0           1           0           0           1           0
           1           2           0           1           0           0
           1           0           1           2           0           1
           0           0           1           0           1           2
           0           1           0           0           1           0
           1           2           0           1           0           0
           1           0           1           2           0           1
           0           0           0           0           0           0
           1           0           1           2           0           1
           0           0           0           0           1           0
           1           2           0           1           0           0
           0           0           1           0           1           2
           0           1           0           0           0           0
           0           0           0           0           0           0
           0           0           0           0           1           0
           1           2           0           1           0           0
           0           0           0           0           1           0
           1           2           0           1           0           0
           0           0           0           0           0           0
           0           0
Number of primitives per shell             I   N=         146
           6           3           3           1           1           1
           1           1           6           3           3           1
           1           1           1           1           6           3
           3           1           1           1           1           1
           6           3           3           1           1           1
           1           1           6           3           3           1
           1           1           1           1           6           3
           3           1           1           1           1           1
           6           3           3           1           1           1
           1           1           6           3           3           1
           1           1           1           1           6           3
           3           1           1           1           1           1
           3           1           3           1           6           3
           3           1           1           1           1           1
           3           1           6           3           3           1
           1           1           1           1           3           1
           6           3           3           1           1           1
           1           1           3           1           3           1
           3           1           3           1           3           1
           3           1           6           3           3           1
           1           1           1           1           3           1
           3           1           6           3           3           1
           1           1           1           1           3           1
           3           1           3           1           3           1
           3           1
Shell to atom map                          I   N=         146
           1           1           1           1           1           1
           1           1           2           2           2           2
           2           2           2           2           3           3
           3           3           3           3           3           3
           4           4           4           4           4           4
           4           4           5           5           5           5
           5           5           5           5           6           6
           6           6           6           6           6           6
           7           7           7           7           7           7
           7           7           8           8           8           8
           8           8           8           8           9           9
           9           9           9           9           9           9
          10          10          11          11          12          12
          12          12          12          12          12          12
          13          13          14          14          14          14
          14          14          14          14          15          15
          16          16          16          16          16          16
          16          16          17          17          18          18
          19          19          20          20          21          21
          22          22          23          23          23          23
          23          23          23          23          24          24
          25          25          26          26          26          26
          26          26          26          26          27          27
          28          28          29          29          30          30
          31          31
Primitive exponents                        R   N=         306
  3.04752490e+03  4.57369510e+02  1.03948690e+02  2.92101550e+01  9.28666300e+00
  3.16392700e+00  7.86827240e+00  1.88128850e+00  5.44249300e-01  7.86827240e+00
  1.88128850e+00  5.44249300e-01  1.68714400e-01  1.68714400e-01  8.00000000e-01
  4.38000000e-02  4.38000000e-02  3.04752490e+03  4.57369510e+02  1.03948690e+02
  2.92101550e+01  9.28666300e+00  3.16392700e+00  7.86827240e+00  1.88128850e+00
  5.44249300e-01  7.86827240e+00  1.88128850e+00  5.44249300e-01  1.68714400e-01
  1.68714400e-01  8.00000000e-01  4.38000000e-02  4.38000000e-02  3.04752490e+03
  4.57369510e+02  1.03948690e+02  2.92101550e+01  9.28666300e+00  3.16392700e+00
  7.86827240e+00  1.88128850e+00  5.44249300e-01  7.86827240e+00  1.88128850e+00
  5.44249300e-01  1.68714400e-01  1.68714400e-01  8.00000000e-01  4.38000000e-02
  4.38000000e-02  4.17351100e+03  6.27457900e+02  1.42902100e+02  4.02343300e+01
  1.28202100e+01  4.39043700e+00  1.16263580e+01  2.71628000e+00  7.72218000e-01
  1.16263580e+01  2.71628000e+00  7.72218000e-01  2.12031300e-01  2.12031300e-01
  8.00000000e-01  6.39000000e-02  6.39000000e-02  3.04752490e+03  4.57369510e+02
  1.03948690e+02  2.92101550e+01  9.28666300e+00  3.16392700e+00  7.86827240e+00
  1.88128850e+00  5.44249300e-01  7.86827240e+00  1.88128850e+00  5.44249300e-01
  1.68714400e-01  1.68714400e-01  8.00000000e-01  4.38000000e-02  4.38000000e-02
  3.04752490e+03  4.57369510e+02  1.03948690e+02  2.92101550e+01  9.28666300e+00
  3.16392700e+00  7.86827240e+00  1.88128850e+00  5.44249300e-01  7.86827240e+00
  1.88128850e+00  5.44249300e-01  1.68714400e-01  1.68714400e-01  8.00000000e-01
  4.38000000e-02  4.38000000e-02  3.04752490e+03  4.57369510e+02  1.03948690e+02
  2.92101550e+01  9.28666300e+00  3.16392700e+00  7.86827240e+00  1.88128850e+00
  5.44249300e-01  7.86827240e+00  1.88128850e+00  5.44249300e-01  1.68714400e-01
  1.68714400e-01  8.00000000e-01  4.38000000e-02  4.38000000e-02  3.04752490e+03
  4.57369510e+02  1.03948690e+02  2.92101550e+01  9.28666300e+00  3.16392700e+00
  7.86827240e+00  1.88128850e+00  5.44249300e-01  7.86827240e+00  1.88128850e+00
  5.44249300e-01  1.68714400e-01  1.68714400e-01  8.00000000e-01  4.38000000e-02
  4.38000000e-02  3.04752490e+03  4.57369510e+02  1.03948690e+02  2.92101550e+01
  9.28666300e+00  3.16392700e+00  7.86827240e+00  1.88128850e+00  5.44249300e-01
  7.86827240e+00  1.88128850e+00  5.44249300e-01  1.68714400e-01  1.68714400e-01
  8.00000000e-01  4.38000000e-02  4.38000000e-02  1.87311370e+01  2.82539370e+00
  6.40121700e-01  1.61277800e-01  1.87311370e+01  2.82539370e+00  6.40121700e-01
  1.61277800e-01  3.04752490e+03  4.57369510e+02  1.03948690e+02  2.92101550e+01
  9.28666300e+00  3.16392700e+00  7.86827240e+00  1.88128850e+00  5.44249300e-01
  7.86827240e+00  1.88128850e+00  5.44249300e-01  1.68714400e-01  1.68714400e-01
  8.00000000e-01  4.38000000e-02  4.38000000e-02  1.87311370e+01  2.82539370e+00
  6.40121700e-01  1.61277800e-01  3.04752490e+03  4.57369510e+02  1.03948690e+02
  2.92101550e+01  9.28666300e+00  3.16392700e+00  7.86827240e+00  1.88128850e+00
  5.44249300e-01  7.86827240e+00  1.88128850e+00  5.44249300e-01  1.68714400e-01
  1.68714400e-01  8.00000000e-01  4.38000000e-02  4.38000000e-02  1.87311370e+01
  2.82539370e+00  6.40121700e-01  1.61277800e-01  5.48467170e+03  8.25234950e+02
  1.88046960e+02  5.29645000e+01  1.68975700e+01  5.79963530e+00  1.55396160e+01
  3.59993360e+00  1.01376180e+00  1.55396160e+01  3.59993360e+00  1.01376180e+00
  2.70005800e-01  2.70005800e-01  8.00000000e-01  8.45000000e-02  8.45000000e-02
  1.87311370e+01  2.82539370e+00  6.40121700e-01  1.61277800e-01  1.87311370e+01
  2.82539370e+00  6.40121700e-01  1.61277800e-01  1.87311370e+01  2.82539370e+00
  6.40121700e-01  1.61277800e-01  1.87311370e+01  2.82539370e+00  6.40121700e-01
  1.61277800e-01  1.87311370e+01  2.82539370e+00  6.40121700e-01  1.61277800e-01
  1.87311370e+01  2.82539370e+00  6.40121700e-01  1.61277800e-01  3.04752490e+03
  4.57369510e+02  1.03948690e+02  2.92101550e+01  9.28666300e+00  3.16392700e+00
  7.86827240e+00  1.88128850e+00  5.44249300e-01  7.86827240e+00  1.88128850e+00
  5.44249300e-01  1.68714400e-01  1.68714400e-01  8.00000000e-01  4.38000000e-02
  4.38000000e-02  1.87311370e+01  2.82539370e+00  6.40121700e-01  1.61277800e-01
  1.87311370e+01  2.82539370e+00  6.40121700e-01  1.61277800e-01  3.04752490e+03
  4.57369510e+02  1.03948690e+02  2.92101550e+01  9.28666300e+00  3.16392700e+00
  7.86827240e+00  1.88128850e+00  5.44249300e-01  7.86827240e+00  1.88128850e+00
  5.44249300e-01  1.68714400e-01  1.68714400e-01  8.00000000e-01  4.38000000e-02
  4.38000000e-02  1.87311370e+01  2.82539370e+00  6.40121700e-01  1.61277800e-01
  1.87311370e+01  2.82539370e+00  6.40121700e-01  1.61277800e-01  1.87311370e+01
  2.82539370e+00  6.40121700e-01  1.61277800e-01  1.87311370e+01  2.82539370e+00
  6.40121700e-01  1.61277800e-01  1.87311370e+01  2.82539370e+00  6.40121700e-01
  1.61277800e-01
Contraction coefficients                   R   N=         306
  1.83470016e-03  1.40373012e-02  6.88426061e-02  2.32184421e-01  4.67941342e-01
  3.62312032e-01 -1.19332409e-01 -1.60854212e-01  1.14345648e+00  6.89990956e-02
  3.16423980e-01  7.44308252e-01  1.00000000e+00  1.00000000e+00  1.00000000e+00
  1.00000000e+00  1.00000000e+00  1.83470016e-03  1.40373012e-02  6.88426061e-02
  2.32184421e-01  4.67941342e-01  3.62312032e-01 -1.19332409e-01 -1.60854212e-01
  1.14345648e+00  6.89990956e-02  3.16423980e-01  7.44308252e-01  1.00000000e+00
  1.00000000e+00  1.00000000e+00  1.00000000e+00  1.00000000e+00  1.83470016e-03
  1.40373012e-02  6.88426061e-02  2.32184421e-01  4.67941342e-01  3.62312032e-01
 -1.19332409e-01 -1.60854212e-01  1.14345648e+00  6.89990956e-02  3.16423980e-01
  7.44308252e-01  1.00000000e+00  1.00000000e+00  1.00000000e+00  1.00000000e+00
  1.00000000e+00  1.83479944e-03  1.39949958e-02  6.85869792e-02  2.32240930e-01
  4.69069858e-01  3.60454891e-01 -1.14961023e-01 -1.69118034e-01  1.14585223e+00
  6.75800232e-02  3.23907111e-01  7.40895255e-01  1.00000000e+00  1.00000000e+00
  1.00000000e+00  1.00000000e+00  1.00000000e+00  1.83470016e-03  1.40373012e-02
  6.88426061e-02  2.32184421e-01  4.67941342e-01  3.62312032e-01 -1.19332409e-01
 -1.60854212e-01  1.14345648e+00  6.89990956e-02  3.16423980e-01  7.44308252e-01
  1.00000000e+00  1.00000000e+00  1.00000000e+00  1.00000000e+00  1.00000000e+00
  1.83470016e-03  1.40373012e-02  6.88426061e-02  2.32184421e-01  4.67941342e-01
  3.62312032e-01 -1.19332409e-01 -1.60854212e-01  1.14345648e+00  6.89990956e-02
  3.16423980e-01  7.44308252e-01  1.00000000e+00  1.00000000e+00  1.00000000e+00
  1.00000000e+00  1.00000000e+00  1.83470016e-03  1.40373012e-02  6.88426061e-02
  2.32184421e-01  4.67941342e-01  3.62312032e-01 -1.19332409e-01 -1.60854212e-01
  1.14345648e+00  6.89990956e-02  3.16423980e-01  7.44308252e-01  1.00000000e+00
  1.00000000e+00  1.00000000e+00  1.00000000e+00  1.00000000e+00  1.83470016e-03
  1.40373012e-02  6.88426061e-02  2.32184421e-01  4.67941342e-01  3.62312032e-01
 -1.19332409e-01 -1.60854212e-01  1.14345648e+00  6.89990956e-02  3.16423980e-01
  7.44308252e-01  1.00000000e+00  1.00000000e+00  1.00000000e+00  1.00000000e+00
  1.00000000e+00  1.83470016e-03  1.40373012e-02  6.88426061e-02  2.32184421e-01
  4.67941342e-01  3.62312032e-01 -1.19332409e-01 -1.60854212e-01  1.14345648e+00
  6.89990956e-02  3.16423980e-01  7.44308252e-01  1.00000000e+00  1.00000000e+00
  1.00000000e+00  1.00000000e+00  1.00000000e+00  3.34945995e-02  2.34726947e-01
  8.13757318e-01  1.00000000e+00  3.34945995e-02  2.34726947e-01  8.13757318e-01
  1.00000000e+00  1.83470016e-03  1.40373012e-02  6.88426061e-02  2.32184421e-01
  4.67941342e-01  3.62312032e-01 -1.19332409e-01 -1.60854212e-01  1.14345648e+00
  6.89990956e-02  3.16423980e-01  7.44308252e-01  1.00000000e+00  1.00000000e+00
  1.00000000e+00  1.00000000e+00  1.00000000e+00  3.34945995e-02  2.34726947e-01
  8.13757318e-01  1.00000000e+00  1.83470016e-03  1.40373012e-02  6.88426061e-02
  2.32184421e-01  4.67941342e-01  3.62312032e-01 -1.19332409e-01 -1.60854212e-01
  1.14345648e+00  6.89990956e-02  3.16423980e-01  7.44308252e-01  1.00000000e+00
  1.00000000e+00  1.00000000e+00  1.00000000e+00  1.00000000e+00  3.34945995e-02
  2.34726947e-01  8.13757318e-01  1.00000000e+00  1.83109981e-03  1.39500985e-02
  6.84450927e-02  2.32714275e-01  4.70192950e-01  3.58520862e-01 -1.10777504e-01
 -1.48026305e-01  1.13076704e+00  7.08742995e-02  3.39752798e-01  7.27158595e-01
  1.00000000e+00  1.00000000e+00  1.00000000e+00  1.00000000e+00  1.00000000e+00
  3.34945995e-02  2.34726947e-01  8.13757318e-01  1.00000000e+00  3.34945995e-02
  2.34726947e-01  8.13757318e-01  1.00000000e+00  3.34945995e-02  2.34726947e-01
  8.13757318e-01  1.00000000e+00  3.34945995e-02  2.34726947e-01  8.13757318e-01
  1.00000000e+00  3.34945995e-02  2.34726947e-01  8.13757318e-01  1.00000000e+00
  3.34945995e-02  2.34726947e-01  8.13757318e-01  1.00000000e+00  1.83470016e-03
  1.40373012e-02  6.88426061e-02  2.32184421e-01  4.67941342e-01  3.62312032e-01
 -1.19332409e-01 -1.60854212e-01  1.14345648e+00  6.89990956e-02  3.16423980e-01
  7.44308252e-01  1.00000000e+00  1.00000000e+00  1.00000000e+00  1.00000000e+00
  1.00000000e+00  3.34945995e-02  2.34726947e-01  8.13757318e-01  1.00000000e+00
  3.34945995e-02  2.34726947e-01  8.13757318e-01  1.00000000e+00  1.83470016e-03
  1.40373012e-02  6.88426061e-02  2.32184421e-01  4.67941342e-01  3.62312032e-01
 -1.19332409e-01 -1.60854212e-01  1.14345648e+00  6.89990956e-02  3.16423980e-01
  7.44308252e-01  1.00000000e+00  1.00000000e+00  1.00000000e+00  1.00000000e+00
  1.00000000e+00  3.34945995e-02  2.34726947e-01  8.13757318e-01  1.00000000e+00
  3.34945995e-02  2.34726947e-01  8.13757318e-01  1.00000000e+00  3.34945995e-02
  2.34726947e-01  8.13757318e-01  1.00000000e+00  3.34945995e-02  2.34726947e-01
  8.13757318e-01  1.00000000e+00  3.34945995e-02  2.34726947e-01  8.13757318e-01
  1.00000000e+00
Coordinates of each shell                  R   N=         438
  5.53930098e-01 -1.72901187e+00 -8.79549398e-01  5.53930098e-01 -1.72901187e+00
 -8.79549398e-01  5.53930098e-01 -1.72901187e+00 -8.79549398e-01  5.53930098e-01
 -1.72901187e+00 -8.79549398e-01  5.53930098e-01 -1.72901187e+00 -8.79549398e-01
  5.53930098e-01 -1.72901187e+00 -8.79549398e-01  5.53930098e-01 -1.72901187e+00
 -8.79549398e-01  5.53930098e-01 -1.72901187e+00 -8.79549398e-01 -1.90754763e+00
 -3.56024498e-01 -5.43893842e-01 -1.90754763e+00 -3.56024498e-01 -5.43893842e-01
 -1.90754763e+00 -3.56024498e-01 -5.43893842e-01 -1.90754763e+00 -3.56024498e-01
 -5.43893842e-01 -1.90754763e+00 -3.56024498e-01 -5.43893842e-01 -1.90754763e+00
 -3.56024498e-01 -5.43893842e-01 -1.90754763e+00 -3.56024498e-01 -5.43893842e-01
 -1.90754763e+00 -3.56024498e-01 -5.43893842e-01 -2.37449738e+00  1.49509220e+00
  1.66533512e+00 -2.37449738e+00  1.49509220e+00  1.66533512e+00 -2.37449738e+00
  1.49509220e+00  1.66533512e+00 -2.37449738e+00  1.49509220e+00  1.66533512e+00
 -2.37449738e+00  1.49509220e+00  1.66533512e+00 -2.37449738e+00  1.49509220e+00
  1.66533512e+00 -2.37449738e+00  1.49509220e+00  1.66533512e+00 -2.37449738e+00
  1.49509220e+00  1.66533512e+00 -1.91085311e+00  3.35347812e-01  4.14105335e+00
 -1.91085311e+00  3.35347812e-01  4.14105335e+00 -1.91085311e+00  3.35347812e-01
  4.14105335e+00 -1.91085311e+00  3.35347812e-01  4.14105335e+00 -1.91085311e+00
  3.35347812e-01  4.14105335e+00 -1.91085311e+00  3.35347812e-01  4.14105335e+00
 -1.91085311e+00  3.35347812e-01  4.14105335e+00 -1.91085311e+00  3.35347812e-01
  4.14105335e+00  2.44932202e+00 -1.83644531e+00  9.80876858e-01  2.44932202e+00
 -1.83644531e+00  9.80876858e-01  2.44932202e+00 -1.83644531e+00  9.80876858e-01
  2.44932202e+00 -1.83644531e+00  9.80876858e-01  2.44932202e+00 -1.83644531e+00
  9.80876858e-01  2.44932202e+00 -1.83644531e+00  9.80876858e-01  2.44932202e+00
 -1.83644531e+00  9.80876858e-01  2.44932202e+00 -1.83644531e+00  9.80876858e-01
  4.69750767e+00 -3.13982829e+00  5.13570036e-01  4.69750767e+00 -3.13982829e+00
  5.13570036e-01  4.69750767e+00 -3.13982829e+00  5.13570036e-01  4.69750767e+00
 -3.13982829e+00  5.13570036e-01  4.69750767e+00 -3.13982829e+00  5.13570036e-01
  4.69750767e+00 -3.13982829e+00  5.13570036e-01  4.69750767e+00 -3.13982829e+00
  5.13570036e-01  4.69750767e+00 -3.13982829e+00  5.13570036e-01  5.08534227e+00
 -4.34084471e+00 -1.80539612e+00  5.08534227e+00 -4.34084471e+00 -1.80539612e+00
  5.08534227e+00 -4.34084471e+00 -1.80539612e+00  5.08534227e+00 -4.34084471e+00
 -1.80539612e+00  5.08534227e+00 -4.34084471e+00 -1.80539612e+00  5.08534227e+00
 -4.34084471e+00 -1.80539612e+00  5.08534227e+00 -4.34084471e+00 -1.80539612e+00
  5.08534227e+00 -4.34084471e+00 -1.80539612e+00  3.20652285e+00 -4.24802294e+00
 -3.66611749e+00  3.20652285e+00 -4.24802294e+00 -3.66611749e+00  3.20652285e+00
 -4.24802294e+00 -3.66611749e+00  3.20652285e+00 -4.24802294e+00 -3.66611749e+00
  3.20652285e+00 -4.24802294e+00 -3.66611749e+00  3.20652285e+00 -4.24802294e+00
 -3.66611749e+00  3.20652285e+00 -4.24802294e+00 -3.66611749e+00  3.20652285e+00
 -4.24802294e+00 -3.66611749e+00  9.59135779e-01 -2.95918840e+00 -3.20371247e+00
  9.59135779e-01 -2.95918840e+00 -3.20371247e+00  9.59135779e-01 -2.95918840e+00
 -3.20371247e+00  9.59135779e-01 -2.95918840e+00 -3.20371247e+00  9.59135779e-01
 -2.95918840e+00 -3.20371247e+00  9.59135779e-01 -2.95918840e+00 -3.20371247e+00
  9.59135779e-01 -2.95918840e+00 -3.20371247e+00  9.59135779e-01 -2.95918840e+00
 -3.20371247e+00  2.11799975e+00 -9.55228430e-01  2.79993030e+00  2.11799975e+00
 -9.55228430e-01  2.79993030e+00  6.14406437e+00 -3.22296710e+00  1.97005134e+00
  6.14406437e+00 -3.22296710e+00  1.97005134e+00 -7.66569565e-01  3.91574149e+00
  1.38650550e+00 -7.66569565e-01  3.91574149e+00  1.38650550e+00 -7.66569565e-01
  3.91574149e+00  1.38650550e+00 -7.66569565e-01  3.91574149e+00  1.38650550e+00
 -7.66569565e-01  3.91574149e+00  1.38650550e+00 -7.66569565e-01  3.91574149e+00
  1.38650550e+00 -7.66569565e-01  3.91574149e+00  1.38650550e+00 -7.66569565e-01
  3.91574149e+00  1.38650550e+00 -4.38089205e+00  2.02432029e+00  1.43906299e+00
 -4.38089205e+00  2.02432029e+00  1.43906299e+00 -3.71693613e+00 -1.65201702e+00
  4.80966403e+00 -3.71693613e+00 -1.65201702e+00  4.80966403e+00 -3.71693613e+00
 -1.65201702e+00  4.80966403e+00 -3.71693613e+00 -1.65201702e+00  4.80966403e+00
 -3.71693613e+00 -1.65201702e+00  4.80966403e+00 -3.71693613e+00 -1.65201702e+00
  4.80966403e+00 -3.71693613e+00 -1.65201702e+00  4.80966403e+00 -3.71693613e+00
 -1.65201702e+00  4.80966403e+00 -1.95725148e+00  1.71951018e+00  5.47800646e+00
 -1.95725148e+00  1.71951018e+00  5.47800646e+00 -3.58896080e+00 -5.96346148e-01
 -2.12009313e+00 -3.58896080e+00 -5.96346148e-01 -2.12009313e+00 -3.58896080e+00
 -5.96346148e-01 -2.12009313e+00 -3.58896080e+00 -5.96346148e-01 -2.12009313e+00
 -3.58896080e+00 -5.96346148e-01 -2.12009313e+00 -3.58896080e+00 -5.96346148e-01
 -2.12009313e+00 -3.58896080e+00 -5.96346148e-01 -2.12009313e+00 -3.58896080e+00
 -5.96346148e-01 -2.12009313e+00  3.49820246e+00 -5.18169811e+00 -5.47264696e+00
  3.49820246e+00 -5.18169811e+00 -5.47264696e+00 -5.17267453e-01 -2.87476082e+00
 -4.62517507e+00 -5.17267453e-01 -2.87476082e+00 -4.62517507e+00 -3.44941743e+00
 -3.28950933e+00  3.57073837e+00 -3.44941743e+00 -3.28950933e+00  3.57073837e+00
 -5.71119825e+00 -1.05442250e+00  4.65407807e+00 -5.71119825e+00 -1.05442250e+00
  4.65407807e+00 -3.35693030e+00 -2.26830695e+00  6.75140741e+00 -3.35693030e+00
 -2.26830695e+00  6.75140741e+00  6.83879969e+00 -5.35088736e+00 -2.16267190e+00
  6.83879969e+00 -5.35088736e+00 -2.16267190e+00 -1.20939912e+00  5.38561070e+00
 -1.07482616e+00 -1.20939912e+00  5.38561070e+00 -1.07482616e+00 -1.20939912e+00
  5.38561070e+00 -1.07482616e+00 -1.20939912e+00  5.38561070e+00 -1.07482616e+00
 -1.20939912e+00  5.38561070e+00 -1.07482616e+00 -1.20939912e+00  5.38561070e+00
 -1.07482616e+00 -1.20939912e+00  5.38561070e+00 -1.07482616e+00 -1.20939912e+00
  5.38561070e+00 -1.07482616e+00  1.24301859e+00  3.43990823e+00  1.57275608e+00
  1.24301859e+00  3.43990823e+00  1.57275608e+00 -1.23368019e+00  5.14922844e+00
  2.99646895e+00 -1.23368019e+00  5.14922844e+00  2.99646895e+00  2.65596785e-01
  7.87861104e+00 -1.15146202e+00  2.65596785e-01  7.87861104e+00 -1.15146202e+00
  2.65596785e-01  7.87861104e+00 -1.15146202e+00  2.65596785e-01  7.87861104e+00
 -1.15146202e+00  2.65596785e-01  7.87861104e+00 -1.15146202e+00  2.65596785e-01
  7.87861104e+00 -1.15146202e+00  2.65596785e-01  7.87861104e+00 -1.15146202e+00
  2.65596785e-01  7.87861104e+00 -1.15146202e+00 -3.23830733e+00  5.76647991e+00
 -1.29481306e+00 -3.23830733e+00  5.76647991e+00 -1.29481306e+00 -6.66390745e-01
  4.21759783e+00 -2.70071929e+00 -6.66390745e-01  4.21759783e+00 -2.70071929e+00
 -2.91758909e-01  9.13300804e+00  4.04133554e-01 -2.91758909e-01  9.13300804e+00
  4.04133554e-01 -7.08881785e-02  8.89147852e+00 -2.92719478e+00 -7.08881785e-02
  8.89147852e+00 -2.92719478e+00  2.30726509e+00  7.54938630e+00 -9.91796553e-01
  2.30726509e+00  7.54938630e+00 -9.91796553e-01
Total Energy                               R     -5.975058804626688e+02
Alpha Orbital Energies                     R   N=         300
 -1.91466564e+01 -1.43381883e+01 -1.02798755e+01 -1.02271626e+01 -1.02116075e+01
 -1.02079194e+01 -1.02071801e+01 -1.02027278e+01 -1.02026204e+01 -1.02014855e+01
 -1.02012493e+01 -1.01971323e+01 -1.01889921e+01 -1.01810295e+01 -1.04412624e+00
 -9.18452624e-01 -8.64678051e-01 -8.01954478e-01 -7.68576991e-01 -7.55494992e-01
 -7.36512964e-01 -6.69390029e-01 -6.60856767e-01 -6.24190841e-01 -6.11286211e-01
 -5.94124745e-01 -5.55929501e-01 -5.09827825e-01 -5.01076138e-01 -4.83303017e-01
 -4.70785543e-01 -4.60804259e-01 -4.53489231e-01 -4.43266111e-01 -4.33371222e-01
 -4.24746178e-01 -4.17902344e-01 -4.13691846e-01 -4.04117180e-01 -3.88755948e-01
 -3.84200957e-01 -3.75331755e-01 -3.64000246e-01 -3.61372065e-01 -3.50519621e-01
 -3.46265138e-01 -3.37310490e-01 -3.31881112e-01 -2.64823389e-01 -2.62210014e-01
 -2.56288984e-01 -2.37057949e-01 -6.62446564e-02 -1.78078247e-02 -1.59289100e-03
  7.85003058e-03  1.31729517e-02  1.90044158e-02  2.44592545e-02  2.60951339e-02
  3.36891246e-02  3.72149711e-02  4.49871413e-02  4.83696355e-02  5.45324805e-02
  5.96674541e-02  6.16378223e-02  6.64820496e-02  7.71730908e-02  7.97160806e-02
  8.42203223e-02  8.94782312e-02  9.35521851e-02  1.00261815e-01  1.01925631e-01
  1.10203885e-01  1.14821953e-01  1.18105083e-01  1.21257878e-01  1.27365701e-01
  1.36106997e-01  1.45117619e-01  1.47307100e-01  1.50734273e-01  1.53020292e-01
  1.56592658e-01  1.65139015e-01  1.65622183e-01  1.69626143e-01  1.77186363e-01
  1.80703422e-01  1.87053209e-01  1.89316172e-01  1.93026258e-01  1.97198715e-01
  2.01209522e-01  2.04630040e-01  2.09978667e-01  2.10139142e-01  2.15645014e-01
  2.21832472e-01  2.29180942e-01  2.30520188e-01  2.33142267e-01  2.36277438e-01
  2.38969840e-01  2.46923485e-01  2.49739073e-01  2.52509909e-01  2.55970954e-01
  2.59256898e-01  2.65217657e-01  2.67778881e-01  2.76220613e-01  2.79844793e-01
  2.88612901e-01  2.89567105e-01  2.94699730e-01  3.03692403e-01  3.04548084e-01
  3.07944240e-01  3.13146906e-01  3.15777502e-01  3.27778343e-01  3.34986081e-01
  3.45028765e-01  3.49374046e-01  3.50319536e-01  3.57885543e-01  3.66229594e-01
  3.79347873e-01  3.84588346e-01  3.89010362e-01  4.02346463e-01  4.12822456e-01
  4.23441191e-01  4.46123979e-01  4.63402971e-01  4.80798614e-01  4.86558590e-01
  5.17279038e-01  5.93715823e-01  6.11634587e-01  6.39565270e-01  6.56815912e-01
  6.67944436e-01  6.78935799e-01  6.86741179e-01  6.89096777e-01  6.98979556e-01
  6.99678131e-01  7.06826371e-01  7.17964687e-01  7.22422508e-01  7.28417581e-01
  7.32692612e-01  7.45707659e-01  7.53537155e-01  7.58620079e-01  7.62817729e-01