Generated by Psi4
     FORCE                           RHF                       TESTBAS
Number of atoms                            I               27
Charge                                     I                0
Multiplicity                               I                1
Number of electrons                        I               88
Number of alpha electrons                  I               44
Number of beta electrons                   I               44
Number of basis functions                  I              258
Number of independent functions            I              258
Atomic numbers                             I   N=          27
           7           6           6           6           6           6
           1           1           1           1           1           1
           1           1           6           6           6           6
           6           6           1           1           1           1
           1           1           1
Nuclear charges                            R   N=          27
  7.00000000e+00  6.00000000e+00  6.00000000e+00  6.00000000e+00  6.00000000e+00
  6.00000000e+00  1.00000000e+00  1.00000000e+00  1.00000000e+00  1.00000000e+00
  1.00000000e+00  1.00000000e+00  1.00000000e+00  1.00000000e+00  6.00000000e+00
  6.00000000e+00  6.00000000e+00  6.00000000e+00  6.00000000e+00  6.00000000e+00
  1.00000000e+00  1.00000000e+00  1.00000000e+00  1.00000000e+00  1.00000000e+00
  1.00000000e+00  1.00000000e+00
Current cartesian coordinates              R   N=          81
 -4.05146345e+00 -5.00780915e+00  1.17143904e+00 -2.68950985e+00 -3.94504621e+00
  3.33318921e+00 -3.27279599e-01 -2.36107004e+00  2.59883831e+00 -5.62024280e-01
 -1.26425228e+00 -1.15277320e-01 -5.01414358e+00 -3.02818263e+00 -5.33950491e-01
 -3.35409574e+00 -6.09339887e-01 -6.41075947e-01 -3.55301226e+00  3.09505768e-01
 -2.48849872e+00 -4.00964573e+00  7.66300908e-01  7.68363188e-01 -2.16234627e+00
 -5.49006983e+00  4.60777233e+00 -4.04012843e+00 -2.76327421e+00  4.37528796e+00
 -6.93657116e+00 -2.51886411e+00  6.45870848e-02 -5.18282740e+00 -3.86151046e+00
 -2.42355184e+00  1.39224343e+00 -3.51727006e+00  2.71174434e+00 -7.97216766e-02
 -8.16797140e-01  3.96244849e+00  3.17601827e+00  7.09108971e-01 -2.38239283e+00
  1.23494585e+00  9.24731466e-01 -5.90672892e-01  1.00889195e+00  3.21944298e+00
  7.25626248e-01  2.66145740e+00  5.22429898e+00  2.64198132e-01  4.58828714e+00
  4.97691682e+00 -1.52781906e+00  4.84023424e+00  2.70780760e+00 -2.85108504e+00
  6.33000827e+00  2.48774682e+00 -4.24925666e+00 -4.75730191e-01  3.45038114e+00
  2.12837982e+00  2.44471920e+00  6.98266274e+00  1.30546858e+00  5.87630637e+00
  6.53652171e+00 -1.88629889e+00  3.38798936e+00 -1.05008988e+00 -3.42735549e+00
 -2.89939956e+00 -6.20909458e+00  2.08153297e-01 -3.45213758e-02 -2.76820020e+00
 -1.44886163e+00
Integer atomic weights                     I   N=          27
          14          12          12          12          12          12
           1           1           1           1           1           1
           1           1          12          12          12          12
          12          12           1           1           1           1
           1           1           1
Real atomic weights                        R   N=          27
  1.40030740e+01  1.20000000e+01  1.20000000e+01  1.20000000e+01  1.20000000e+01
  1.20000000e+01  1.00782503e+00  1.00782503e+00  1.00782503e+00  1.00782503e+00
  1.00782503e+00  1.00782503e+00  1.00782503e+00  1.00782503e+00  1.20000000e+01
  1.20000000e+01  1.20000000e+01  1.20000000e+01  1.20000000e+01  1.20000000e+01
  1.00782503e+00  1.00782503e+00  1.00782503e+00  1.00782503e+00  1.00782503e+00
  1.00782503e+00  1.00782503e+00
Number of primitive shells                 I              264
Number of contracted shells                I              126
Pure/Cartesian d shells                    I                1
Pure/Cartesian f shells                    I                1
Highest angular momentum                   I                2
Largest degree of contraction              I                6
Shell types                                I   N=         126
           0           0           1           0           1           2
           0           1           0           0           1           0
           1           2           0           1           0           0
           1           0           1           2           0           1
           0           0           1           0           1           2
           0           1           0           0           1           0
           1           2           0           1           0           0
           1           0           1           2           0           1
           0           0           0           0           0           0
           0           0           0           0           0           0
           0           0           0           0           0           0
           1           0           1           2           0           1
           0           0           1           0           1           2
           0           1           0           0           1           0
           1           2           0           1           0           0
           1           0           1           2           0           1
           0           0           1           0           1           2
           0           1           0           0           1           0
           1           2           0           1           0           0
           0           0           0           0           0           0
           0           0           0           0           0           0
Number of primitives per shell             I   N=         126
           6           3           3           1           1           1
           1           1           6           3           3           1
           1           1           1           1           6           3
           3           1           1           1           1           1
           6           3           3           1           1           1
           1           1           6           3           3           1
           1           1           1           1           6           3
           3           1           1           1           1           1
           3           1           3           1           3           1
           3           1           3           1           3           1
           3           1           3           1           6           3
           3           1           1           1           1           1
           6           3           3           1           1           1
           1           1           6           3           3           1
           1           1           1           1           6           3
           3           1           1           1           1           1
           6           3           3           1           1           1
           1           1           6           3           3           1
           1           1           1           1           3           1
           3           1           3           1           3           1
           3           1           3           1           3           1
Shell to atom map                          I   N=         126
           1           1           1           1           1           1
           1           1           2           2           2           2
           2           2           2           2           3           3
           3           3           3           3           3           3
           4           4           4           4           4           4
           4           4           5           5           5           5
           5           5           5           5           6           6
           6           6           6           6           6           6
           7           7           8           8           9           9
          10          10          11          11          12          12
          13          13          14          14          15          15
          15          15          15          15          15          15
          16          16          16          16          16          16
          16          16          17          17          17          17
          17          17          17          17          18          18
          18          18          18          18          18          18
          19          19          19          19          19          19
          19          19          20          20          20          20
          20          20          20          20          21          21
          22          22          23          23          24          24
          25          25          26          26          27          27
Primitive exponents                        R   N=         264
  4.17351100e+03  6.27457900e+02  1.42902100e+02  4.02343300e+01  1.28202100e+01
  4.39043700e+00  1.16263580e+01  2.71628000e+00  7.72218000e-01  1.16263580e+01
  2.71628000e+00  7.72218000e-01  2.12031300e-01  2.12031300e-01  8.00000000e-01
  6.39000000e-02  6.39000000e-02  3.04752490e+03  4.57369510e+02  1.03948690e+02
  2.92101550e+01  9.28666300e+00  3.16392700e+00  7.86827240e+00  1.88128850e+00
  5.44249300e-01  7.86827240e+00  1.88128850e+00  5.44249300e-01  1.68714400e-01
  1.68714400e-01  8.00000000e-01  4.38000000e-02  4.38000000e-02  3.04752490e+03
  4.57369510e+02  1.03948690e+02  2.92101550e+01  9.28666300e+00  3.16392700e+00
  7.86827240e+00  1.88128850e+00  5.44249300e-01  7.86827240e+00  1.88128850e+00
  5.44249300e-01  1.68714400e-01  1.68714400e-01  8.00000000e-01  4.38000000e-02
  4.38000000e-02  3.04752490e+03  4.57369510e+02  1.03948690e+02  2.92101550e+01
  9.28666300e+00  3.16392700e+00  7.86827240e+00  1.88128850e+00  5.44249300e-01
  7.86827240e+00  1.88128850e+00  5.44249300e-01  1.68714400e-01  1.68714400e-01
  8.00000000e-01  4.38000000e-02  4.38000000e-02  3.04752490e+03  4.57369510e+02
  1.03948690e+02  2.92101550e+01  9.28666300e+00  3.16392700e+00  7.86827240e+00
  1.88128850e+00  5.44249300e-01  7.86827240e+00  1.88128850e+00  5.44249300e-01
  1.68714400e-01  1.68714400e-01  8.00000000e-01  4.38000000e-02  4.38000000e-02
  3.04752490e+03  4.57369510e+02  1.03948690e+02  2.92101550e+01  9.28666300e+00
  3.16392700e+00  7.86827240e+00  1.88128850e+00  5.44249300e-01  7.86827240e+00
  1.88128850e+00  5.44249300e-01  1.68714400e-01  1.68714400e-01  8.00000000e-01
  4.38000000e-02  4.38000000e-02  1.87311370e+01  2.82539370e+00  6.40121700e-01
  1.61277800e-01  1.87311370e+01  2.82539370e+00  6.40121700e-01  1.61277800e-01
  1.87311370e+01  2.82539370e+00  6.40121700e-01  1.61277800e-01  1.87311370e+01
  2.82539370e+00  6.40121700e-01  1.61277800e-01  1.87311370e+01  2.82539370e+00
  6.40121700e-01  1.61277800e-01  1.87311370e+01  2.82539370e+00  6.40121700e-01
  1.61277800e-01  1.87311370e+01  2.82539370e+00  6.40121700e-01  1.61277800e-01
  1.87311370e+01  2.82539370e+00  6.40121700e-01  1.61277800e-01  3.04752490e+03
  4.57369510e+02  1.03948690e+02  2.92101550e+01  9.28666300e+00  3.16392700e+00
  7.86827240e+00  1.88128850e+00  5.44249300e-01  7.86827240e+00  1.88128850e+00
  5.44249300e-01  1.68714400e-01  1.68714400e-01  8.00000000e-01  4.38000000e-02
  4.38000000e-02  3.04752490e+03  4.57369510e+02  1.03948690e+02  2.92101550e+01
  9.28666300e+00  3.16392700e+00  7.86827240e+00  1.88128850e+00  5.44249300e-01
  7.86827240e+00  1.88128850e+00  5.44249300e-01  1.68714400e-01  1.68714400e-01
  8.00000000e-01  4.38000000e-02  4.38000000e-02  3.04752490e+03  4.57369510e+02
  1.03948690e+02  2.92101550e+01  9.28666300e+00  3.16392700e+00  7.86827240e+00
  1.88128850e+00  5.44249300e-01  7.86827240e+00  1.88128850e+00  5.44249300e-01
  1.68714400e-01  1.68714400e-01  8.00000000e-01  4.38000000e-02  4.38000000e-02
  3.04752490e+03  4.57369510e+02  1.03948690e+02  2.92101550e+01  9.28666300e+00
  3.16392700e+00  7.86827240e+00  1.88128850e+00  5.44249300e-01  7.86827240e+00
  1.88128850e+00  5.44249300e-01  1.68714400e-01  1.68714400e-01  8.00000000e-01
  4.38000000e-02  4.38000000e-02  3.04752490e+03  4.57369510e+02  1.03948690e+02
  2.92101550e+01  9.28666300e+00  3.16392700e+00  7.86827240e+00  1.88128850e+00
  5.44249300e-01  7.86827240e+00  1.88128850e+00  5.44249300e-01  1.68714400e-01
  1.68714400e-01  8.00000000e-01  4.38000000e-02  4.38000000e-02  3.04752490e+03
  4.57369510e+02  1.03948690e+02  2.92101550e+01  9.28666300e+00  3.16392700e+00
  7.86827240e+00  1.88128850e+00  5.44249300e-01  7.86827240e+00  1.88128850e+00
  5.44249300e-01  1.68714400e-01  1.68714400e-01  8.00000000e-01  4.38000000e-02
  4.38000000e-02  1.87311370e+01  2.82539370e+00  6.40121700e-01  1.61277800e-01
  1.87311370e+01  2.82539370e+00  6.40121700e-01  1.61277800e-01  1.87311370e+01
  2.82539370e+00  6.40121700e-01  1.61277800e-01  1.87311370e+01  2.82539370e+00
  6.40121700e-01  1.61277800e-01  1.87311370e+01  2.82539370e+00  6.40121700e-01
  1.61277800e-01  1.87311370e+01  2.82539370e+00  6.40121700e-01  1.61277800e-01
  1.87311370e+01  2.82539370e+00  6.40121700e-01  1.61277800e-01
Contraction coefficients                   R   N=         264
  1.83479944e-03  1.39949958e-02  6.85869792e-02  2.32240930e-01  4.69069858e-01
  3.60454891e-01 -1.14961023e-01 -1.69118034e-01  1.14585223e+00  6.75800232e-02
  3.23907111e-01  7.40895255e-01  1.00000000e+00  1.00000000e+00  1.00000000e+00
  1.00000000e+00  1.00000000e+00  1.83470016e-03  1.40373012e-02  6.88426061e-02
  2.32184421e-01  4.67941342e-01  3.62312032e-01 -1.19332409e-01 -1.60854212e-01
  1.14345648e+00  6.89990956e-02  3.16423980e-01  7.44308252e-01  1.00000000e+00
  1.00000000e+00  1.00000000e+00  1.00000000e+00  1.00000000e+00  1.83470016e-03
  1.40373012e-02  6.88426061e-02  2.32184421e-01  4.67941342e-01  3.62312032e-01
 -1.19332409e-01 -1.60854212e-01  1.14345648e+00  6.89990956e-02  3.16423980e-01
  7.44308252e-01  1.00000000e+00  1.00000000e+00  1.00000000e+00  1.00000000e+00
  1.00000000e+00  1.83470016e-03  1.40373012e-02  6.88426061e-02  2.32184421e-01
  4.67941342e-01  3.62312032e-01 -1.19332409e-01 -1.60854212e-01  1.14345648e+00
  6.89990956e-02  3.16423980e-01  7.44308252e-01  1.00000000e+00  1.00000000e+00
  1.00000000e+00  1.00000000e+00  1.00000000e+00  1.83470016e-03  1.40373012e-02
  6.88426061e-02  2.32184421e-01  4.67941342e-01  3.62312032e-01 -1.19332409e-01
 -1.60854212e-01  1.14345648e+00  6.89990956e-02  3.16423980e-01  7.44308252e-01
  1.00000000e+00  1.00000000e+00  1.00000000e+00  1.00000000e+00  1.00000000e+00
  1.83470016e-03  1.40373012e-02  6.88426061e-02  2.32184421e-01  4.67941342e-01
  3.62312032e-01 -1.19332409e-01 -1.60854212e-01  1.14345648e+00  6.89990956e-02
  3.16423980e-01  7.44308252e-01  1.00000000e+00  1.00000000e+00  1.00000000e+00
  1.00000000e+00  1.00000000e+00  3.34945995e-02  2.34726947e-01  8.13757318e-01
  1.00000000e+00  3.34945995e-02  2.34726947e-01  8.13757318e-01  1.00000000e+00
  3.34945995e-02  2.34726947e-01  8.13757318e-01  1.00000000e+00  3.34945995e-02
  2.34726947e-01  8.13757318e-01  1.00000000e+00  3.34945995e-02  2.34726947e-01
  8.13757318e-01  1.00000000e+00  3.34945995e-02  2.34726947e-01  8.13757318e-01
  1.00000000e+00  3.34945995e-02  2.34726947e-01  8.13757318e-01  1.00000000e+00
  3.34945995e-02  2.34726947e-01  8.13757318e-01  1.00000000e+00  1.83470016e-03
  1.40373012e-02  6.88426061e-02  2.32184421e-01  4.67941342e-01  3.62312032e-01
 -1.19332409e-01 -1.60854212e-01  1.14345648e+00  6.89990956e-02  3.16423980e-01
  7.44308252e-01  1.00000000e+00  1.00000000e+00  1.00000000e+00  1.00000000e+00
  1.00000000e+00  1.83470016e-03  1.40373012e-02  6.88426061e-02  2.32184421e-01
  4.67941342e-01  3.62312032e-01 -1.19332409e-01 -1.60854212e-01  1.14345648e+00
  6.89990956e-02  3.16423980e-01  7.44308252e-01  1.00000000e+00  1.00000000e+00
  1.00000000e+00  1.00000000e+00  1.00000000e+00  1.83470016e-03  1.40373012e-02
  6.88426061e-02  2.32184421e-01  4.67941342e-01  3.62312032e-01 -1.19332409e-01
 -1.60854212e-01  1.14345648e+00  6.89990956e-02  3.16423980e-01  7.44308252e-01
  1.00000000e+00  1.00000000e+00  1.00000000e+00  1.00000000e+00  1.00000000e+00
  1.83470016e-03  1.40373012e-02  6.88426061e-02  2.32184421e-01  4.67941342e-01
  3.62312032e-01 -1.19332409e-01 -1.60854212e-01  1.14345648e+00  6.89990956e-02
  3.16423980e-01  7.44308252e-01  1.00000000e+00  1.00000000e+00  1.00000000e+00
  1.00000000e+00  1.00000000e+00  1.83470016e-03  1.40373012e-02  6.88426061e-02
  2.32184421e-01  4.67941342e-01  3.62312032e-01 -1.19332409e-01 -1.60854212e-01
  1.14345648e+00  6.89990956e-02  3.16423980e-01  7.44308252e-01  1.00000000e+00
  1.00000000e+00  1.00000000e+00  1.00000000e+00  1.00000000e+00  1.83470016e-03
  1.40373012e-02  6.88426061e-02  2.32184421e-01  4.67941342e-01  3.62312032e-01
 -1.19332409e-01 -1.60854212e-01  1.14345648e+00  6.89990956e-02  3.16423980e-01
  7.44308252e-01  1.00000000e+00  1.00000000e+00  1.00000000e+00  1.00000000e+00
  1.00000000e+00  3.34945995e-02  2.34726947e-01  8.13757318e-01  1.00000000e+00
  3.34945995e-02  2.34726947e-01  8.13757318e-01  1.00000000e+00  3.34945995e-02
  2.34726947e-01  8.13757318e-01  1.00000000e+00  3.34945995e-02  2.34726947e-01
  8.13757318e-01  1.00000000e+00  3.34945995e-02  2.34726947e-01  8.13757318e-01
  1.00000000e+00  3.34945995e-02  2.34726947e-01  8.13757318e-01  1.00000000e+00
  3.34945995e-02  2.34726947e-01  8.13757318e-01  1.00000000e+00
Coordinates of each shell                  R   N=         378
 -4.05146345e+00 -5.00780915e+00  1.17143904e+00 -4.05146345e+00 -5.00780915e+00
  1.17143904e+00 -4.05146345e+00 -5.00780915e+00  1.17143904e+00 -4.05146345e+00
 -5.00780915e+00  1.17143904e+00 -4.05146345e+00 -5.00780915e+00  1.17143904e+00
 -4.05146345e+00 -5.00780915e+00  1.17143904e+00 -4.05146345e+00 -5.00780915e+00
  1.17143904e+00 -4.05146345e+00 -5.00780915e+00  1.17143904e+00 -2.68950985e+00
 -3.94504621e+00  3.33318921e+00 -2.68950985e+00 -3.94504621e+00  3.33318921e+00
 -2.68950985e+00 -3.94504621e+00  3.33318921e+00 -2.68950985e+00 -3.94504621e+00
  3.33318921e+00 -2.68950985e+00 -3.94504621e+00  3.33318921e+00 -2.68950985e+00
 -3.94504621e+00  3.33318921e+00 -2.68950985e+00 -3.94504621e+00  3.33318921e+00
 -2.68950985e+00 -3.94504621e+00  3.33318921e+00 -3.27279599e-01 -2.36107004e+00
  2.59883831e+00 -3.27279599e-01 -2.36107004e+00  2.59883831e+00 -3.27279599e-01
 -2.36107004e+00  2.59883831e+00 -3.27279599e-01 -2.36107004e+00  2.59883831e+00
 -3.27279599e-01 -2.36107004e+00  2.59883831e+00 -3.27279599e-01 -2.36107004e+00
  2.59883831e+00 -3.27279599e-01 -2.36107004e+00  2.59883831e+00 -3.27279599e-01
 -2.36107004e+00  2.59883831e+00 -5.62024280e-01 -1.26425228e+00 -1.15277320e-01
 -5.62024280e-01 -1.26425228e+00 -1.15277320e-01 -5.62024280e-01 -1.26425228e+00
 -1.15277320e-01 -5.62024280e-01 -1.26425228e+00 -1.15277320e-01 -5.62024280e-01
 -1.26425228e+00 -1.15277320e-01 -5.62024280e-01 -1.26425228e+00 -1.15277320e-01
 -5.62024280e-01 -1.26425228e+00 -1.15277320e-01 -5.62024280e-01 -1.26425228e+00
 -1.15277320e-01 -5.01414358e+00 -3.02818263e+00 -5.33950491e-01 -5.01414358e+00
 -3.02818263e+00 -5.33950491e-01 -5.01414358e+00 -3.02818263e+00 -5.33950491e-01
 -5.01414358e+00 -3.02818263e+00 -5.33950491e-01 -5.01414358e+00 -3.02818263e+00
 -5.33950491e-01 -5.01414358e+00 -3.02818263e+00 -5.33950491e-01 -5.01414358e+00
 -3.02818263e+00 -5.33950491e-01 -5.01414358e+00 -3.02818263e+00 -5.33950491e-01
 -3.35409574e+00 -6.09339887e-01 -6.41075947e-01 -3.35409574e+00 -6.09339887e-01
 -6.41075947e-01 -3.35409574e+00 -6.09339887e-01 -6.41075947e-01 -3.35409574e+00
 -6.09339887e-01 -6.41075947e-01 -3.35409574e+00 -6.09339887e-01 -6.41075947e-01
 -3.35409574e+00 -6.09339887e-01 -6.41075947e-01 -3.35409574e+00 -6.09339887e-01
 -6.41075947e-01 -3.35409574e+00 -6.09339887e-01 -6.41075947e-01 -3.55301226e+00
  3.09505768e-01 -2.48849872e+00 -3.55301226e+00  3.09505768e-01 -2.48849872e+00
 -4.00964573e+00  7.66300908e-01  7.68363188e-01 -4.00964573e+00  7.66300908e-01
  7.68363188e-01 -2.16234627e+00 -5.49006983e+00  4.60777233e+00 -2.16234627e+00
 -5.49006983e+00  4.60777233e+00 -4.04012843e+00 -2.76327421e+00  4.37528796e+00
 -4.04012843e+00 -2.76327421e+00  4.37528796e+00 -6.93657116e+00 -2.51886411e+00
  6.45870848e-02 -6.93657116e+00 -2.51886411e+00  6.45870848e-02 -5.18282740e+00
 -3.86151046e+00 -2.42355184e+00 -5.18282740e+00 -3.86151046e+00 -2.42355184e+00
  1.39224343e+00 -3.51727006e+00  2.71174434e+00  1.39224343e+00 -3.51727006e+00
  2.71174434e+00 -7.97216766e-02 -8.16797140e-01  3.96244849e+00 -7.97216766e-02
 -8.16797140e-01  3.96244849e+00  3.17601827e+00  7.09108971e-01 -2.38239283e+00
  3.17601827e+00  7.09108971e-01 -2.38239283e+00  3.17601827e+00  7.09108971e-01
 -2.38239283e+00  3.17601827e+00  7.09108971e-01 -2.38239283e+00  3.17601827e+00
  7.09108971e-01 -2.38239283e+00  3.17601827e+00  7.09108971e-01 -2.38239283e+00
  3.17601827e+00  7.09108971e-01 -2.38239283e+00  3.17601827e+00  7.09108971e-01
 -2.38239283e+00  1.23494585e+00  9.24731466e-01 -5.90672892e-01  1.23494585e+00
  9.24731466e-01 -5.90672892e-01  1.23494585e+00  9.24731466e-01 -5.90672892e-01
  1.23494585e+00  9.24731466e-01 -5.90672892e-01  1.23494585e+00  9.24731466e-01
 -5.90672892e-01  1.23494585e+00  9.24731466e-01 -5.90672892e-01  1.23494585e+00
  9.24731466e-01 -5.90672892e-01  1.23494585e+00  9.24731466e-01 -5.90672892e-01
  1.00889195e+00  3.21944298e+00  7.25626248e-01  1.00889195e+00  3.21944298e+00
  7.25626248e-01  1.00889195e+00  3.21944298e+00  7.25626248e-01  1.00889195e+00
  3.21944298e+00  7.25626248e-01  1.00889195e+00  3.21944298e+00  7.25626248e-01
  1.00889195e+00  3.21944298e+00  7.25626248e-01  1.00889195e+00  3.21944298e+00
  7.25626248e-01  1.00889195e+00  3.21944298e+00  7.25626248e-01  2.66145740e+00
  5.22429898e+00  2.64198132e-01  2.66145740e+00  5.22429898e+00  2.64198132e-01
  2.66145740e+00  5.22429898e+00  2.64198132e-01  2.66145740e+00  5.22429898e+00
  2.64198132e-01  2.66145740e+00  5.22429898e+00  2.64198132e-01  2.66145740e+00
  5.22429898e+00  2.64198132e-01  2.66145740e+00  5.22429898e+00  2.64198132e-01
  2.66145740e+00  5.22429898e+00  2.64198132e-01  4.58828714e+00  4.97691682e+00
 -1.52781906e+00  4.58828714e+00  4.97691682e+00 -1.52781906e+00  4.58828714e+00
  4.97691682e+00 -1.52781906e+00  4.58828714e+00  4.97691682e+00 -1.52781906e+00
  4.58828714e+00  4.97691682e+00 -1.52781906e+00  4.58828714e+00  4.97691682e+00
 -1.52781906e+00  4.58828714e+00  4.97691682e+00 -1.52781906e+00  4.58828714e+00
  4.97691682e+00 -1.52781906e+00  4.84023424e+00  2.70780760e+00 -2.85108504e+00
  4.84023424e+00  2.70780760e+00 -2.85108504e+00  4.84023424e+00  2.70780760e+00
 -2.85108504e+00  4.84023424e+00  2.70780760e+00 -2.85108504e+00  4.84023424e+00
  2.70780760e+00 -2.85108504e+00  4.84023424e+00  2.70780760e+00 -2.85108504e+00
  4.84023424e+00  2.70780760e+00 -2.85108504e+00  4.84023424e+00  2.70780760e+00
 -2.85108504e+00  6.33000827e+00  2.48774682e+00 -4.24925666e+00  6.33000827e+00
  2.48774682e+00 -4.24925666e+00 -4.75730191e-01  3.45038114e+00  2.12837982e+00
 -4.75730191e-01  3.45038114e+00  2.12837982e+00  2.44471920e+00  6.98266274e+00
  1.30546858e+00  2.44471920e+00  6.98266274e+00  1.30546858e+00  5.87630637e+00
  6.53652171e+00 -1.88629889e+00  5.87630637e+00  6.53652171e+00 -1.88629889e+00
  3.38798936e+00 -1.05008988e+00 -3.42735549e+00  3.38798936e+00 -1.05008988e+00
 -3.42735549e+00 -2.89939956e+00 -6.20909458e+00  2.08153297e-01 -2.89939956e+00
 -6.20909458e+00  2.08153297e-01 -3.45213758e-02 -2.76820020e+00 -1.44886163e+00
 -3.45213758e-02 -2.76820020e+00 -1.44886163e+00
Total Energy                               R     -4.829611399463574e+02
Alpha Orbital Energies                     R   N=         258
 -1.43229509e+01 -1.02102007e+01 -1.02093974e+01 -1.02015322e+01 -1.02003468e+01
 -1.01967888e+01 -1.01964466e+01 -1.01948807e+01 -1.01942392e+01 -1.01940469e+01
 -1.01863564e+01 -1.01857412e+01 -9.10219166e-01 -8.60765998e-01 -8.01454668e-01
 -7.48971178e-01 -7.48513890e-01 -7.36506693e-01 -6.51674669e-01 -6.28959396e-01
 -6.10147969e-01 -5.93794680e-01 -5.48386618e-01 -5.16938352e-01 -5.09026530e-01
 -4.72826295e-01 -4.59571122e-01 -4.45972911e-01 -4.45631593e-01 -4.24580832e-01
 -4.20033857e-01 -4.04570742e-01 -3.89869567e-01 -3.82268534e-01 -3.76353733e-01
 -3.69903005e-01 -3.57180656e-01 -3.47161730e-01 -3.34023970e-01 -3.21895480e-01
 -3.15632627e-01 -2.55607766e-01 -2.46280591e-01 -2.21407750e-01 -1.47939800e-02
 -1.14993632e-02 -2.03532824e-03  6.82262813e-03  1.34907189e-02  2.35395493e-02
  3.12781999e-02  3.37719276e-02  3.76343116e-02  4.85263240e-02  5.26524197e-02
  5.61378547e-02  5.78864472e-02  6.30240989e-02  7.74140743e-02  8.65189293e-02
  8.72690388e-02  8.95803787e-02  9.17477839e-02  9.44498750e-02  1.09468487e-01
  1.14941057e-01  1.23149883e-01  1.26181785e-01  1.28359010e-01  1.36574177e-01
  1.39432007e-01  1.50086178e-01  1.55423378e-01  1.60895092e-01  1.65584439e-01
  1.70475462e-01  1.72194168e-01  1.80874015e-01  1.81530766e-01  1.85462325e-01
  1.87915978e-01  1.96487358e-01  2.01515146e-01  2.06935554e-01  2.08989927e-01
  2.16237476e-01  2.17920116e-01  2.18996939e-01  2.24173118e-01  2.27508655e-01
  2.36671542e-01  2.38163400e-01  2.42921742e-01  2.45463890e-01  2.46885161e-01
  2.56235561e-01  2.61443661e-01  2.65635956e-01  2.67431029e-01  2.75468900e-01
  2.78971487e-01  2.86700393e-01  2.92393204e-01  2.94081218e-01  2.97671977e-01
  3.01927102e-01  3.15338245e-01  3.21480416e-01  3.31960373e-01  3.39703141e-01
  3.50242619e-01  3.53992368e-01  3.59129410e-01  3.79957183e-01  3.87400163e-01
  3.90533919e-01  4.02670260e-01  4.18987154e-01  4.23846677e-01  4.57022274e-01
  4.80508336e-01  5.79759208e-01  6.01392397e-01  6.45572578e-01  6.57210557e-01
  6.73897698e-01  6.83235444e-01  6.87101814e-01  7.01037311e-01  7.01723783e-01
  7.12458808e-01  7.17917497e-01  7.26807260e-01  7.33115546e-01  7.41916265e-01
  7.48009020e-01  7.51353606e-01  7.61602736e-01  7.63623540e-01  7.82164445e-01
  7.95475437e-01  8.17267514e-01  8.19579300e-01  8.22630345e-01  8.34219526e-01
  8.54424546e-01  8.92317618e-01  9.01389252e-01  9.12032099e-01  9.28586214e-01
  9.38299458e-01  9.44045373e-01  9.60623508e-01  9.62003325e-01  9.74917946e-01
  1.00302904e+00  1.00880544e+00  1.01587851e+00  1.02417139e+00  1.03873389e+00
  1.04862771e+00  1.08556472e+00  1.09007942e+00  1.09483275e+00  1.10671288e+00
  1.11122250e+00  1.13170464e+00  1.14335705e+00  1.15885608e+00  1.16970007e+00
  1.18892364e+00  1.20273645e+00  1.20727809e+00  1.22014352e+00  1.25755998e+00
  1.27594233e+00  1.30889293e+00  1.31708956e+00  1.36829657e+00  1.39294213e+00
  1.41532458e+00  1.44063653e+00  1.44887329e+00  1.47092241e+00  1.48628581e+00
  1.49438022e+00  1.51126252e+00  1.53045739e+00  1.56953767e+00  1.58480574e+00
  1.62219007e+00  1.69388849e+00  1.74240123e+00  1.76535810e+00  1.78027826e+00
  1.80953946e+00  1.83282726e+00  1.84651420e+00  1.86973843e+00  1.88020123e+00
  1.91827869e+00  1.94456736e+00  1.95207025e+00  1.96346090e+00  1.99889334e+00
  2.01204831e+00  2.03888023e+00  2.06181988e+00  2.08481147e+00  2.09495067e+00
  2.10697825e+00  2.11665050e+00  2.14653165e+00  2.15365900e+00  2.15760132e+00
  2.18721149e+00  2.21282261e+00  2.22064013e+00  2.24145820e+00  2.26605566e+00
  2.30185303e+00  2.30842557e+00  2.32971326e+00  2.39278966e+00  2.42952194e+00
  2.43312982e+00  2.45882222e+00  2.48899690e+00  2.49339384e+00  2.54129635e+00
  2.59112959e+00  2.63035690e+00  2.63580225e+00  2.64624923e+00  2.70388031e+00
  2.72608260e+00  2.75095571e+00  2.76820358e+00  2.77785969e+00  2.78929234e+00
  2.79780569e+00  2.82792576e+00  2.87133070e+00  2.98548605e+00  3.08336577e+00
  3.40207315e+00  4.08284904e+00  4.24581610e+00  4.25179396e+00  4.28506306e+00
  4.31824452e+00  4.34004361e+00  4.39519249e+00  4.43860247e+00  4.49865680e+00
  4.60111291e+00  4.71134049e+00  4.79730454e+00
Alpha MO coefficients                      R   N=       66564
  9.92697072e-01  3.47245809e-02  9.79131899e-04  6.23106026e-04 -4.27247662e-04
  3.49819932e-03 -1.00758423e-03 -8.81539383e-04  3.35475319e-04 -8.24899665e-03
 -8.32709329e-03 -8.32996582e-03 -1.47712563e-05 -9.50525236e-05  2.50462891e-05
 -5.58579881e-03 -1.63526951e-05 -2.81617371e-04 -1.33537328e-04 -3.30026918e-05
 -4.37167223e-05 -1.39075082e-04 -1.01296777e-04 -2.37440560e-04  1.17172639e-03
  1.09766827e-04  6.32889095e-05 -4.68794330e-04 -3.23335719e-05 -6.17264143e-05
  8.81663885e-05  5.13935787e-05  7.58577691e-05  6.77527515e-05  3.49558962e-03
 -1.69282251e-04 -9.19642863e-05 -9.28629495e-04  2.68609596e-06  7.34991303e-05
  4.05957479e-05  3.80248585e-05  3.74576727e-05 -6.34703278e-04  3.03639145e-04
  2.13401935e-05  3.30402370e-05 -4.62861872e-05 -2.89365245e-05 -1.91867674e-05
 -1.96410248e-05 -2.68895184e-05 -1.59911543e-05 -5.93541163e-03  8.75048930e-04
  9.74220593e-05  1.06314485e-03 -1.19600194e-05 -2.31331964e-05  3.60744831e-05
  4.24150758e-05 -1.30663087e-05  1.28296392e-04 -7.44361946e-04 -4.51563987e-04
  1.63853650e-04 -2.03737623e-05 -6.15383805e-05 -9.32988684e-06 -3.78540637e-05
  8.55978877e-06  8.44592275e-06  1.28173968e-02 -2.71036867e-03  5.06198474e-04
  2.99966850e-03 -2.90422893e-05 -4.48792052e-05  1.21685326e-04 -1.83848407e-04
  1.94018337e-04  1.15098954e-03  5.29777234e-04  2.79456269e-05  8.02124320e-05
 -1.19142167e-05  4.65675934e-05  1.58267887e-05 -5.67652163e-05  8.46528998e-05
 -9.68561223e-05  1.52756123e-03  2.90530781e-04 -6.24252406e-04  4.11576036e-04
  2.17627115e-05  1.48514853e-04 -2.38930181e-06  2.31325368e-05 -1.35997546e-05
 -1.10641400e-03 -1.53774136e-04  4.49660757e-04 -9.86411586e-05  1.22998434e-05
 -4.15319074e-05  2.30425747e-05  7.81561283e-06 -1.02471653e-05  2.08069661e-05