Generated by Psi4
     FORCE                           RHF                       TESTBAS
Number of atoms                            I               31
Charge                                     I                0
Multiplicity                               I                1
Number of electrons                        I              108
Number of alpha electrons                  I               54
Number of beta electrons                   I               54
Number of basis functions                  I              317
Number of independent functions            I              317
Atomic numbers                             I   N=          31
           7           6           6           6           6           6
           1           1           1           1           1           1
           1           1           6           6           6           6
           6           6           6           1           1           1
           1           1           6           1           1           1
           7
Nuclear charges                            R   N=          31
  7.00000000e+00  6.00000000e+00  6.00000000e+00  6.00000000e+00  6.00000000e+00
  6.00000000e+00  1.00000000e+00  1.00000000e+00  1.00000000e+00  1.00000000e+00
  1.00000000e+00  1.00000000e+00  1.00000000e+00  1.00000000e+00  6.00000000e+00
  6.00000000e+00  6.00000000e+00  6.00000000e+00  6.00000000e+00  6.00000000e+00
  6.00000000e+00  1.00000000e+00  1.00000000e+00  1.00000000e+00  1.00000000e+00
  1.00000000e+00  6.00000000e+00  1.00000000e+00  1.00000000e+00  1.00000000e+00
  7.00000000e+00
Current cartesian coordinates              R   N=          93
 -3.24194626e+00 -4.42325098e+00  8.76537484e-01 -1.76735507e+00 -3.63050033e+00
  3.05930561e+00  5.63092866e-01 -2.11709940e+00  2.18751824e+00 -3.24019796e-03
 -4.48457697e-01 -2.07621799e-01 -4.51680126e+00 -2.29377405e+00 -3.46914551e-01
 -2.89267032e+00  1.23362822e-01 -2.76461968e-01 -3.33389314e+00  1.32736172e+00
 -1.89978731e+00 -3.33193359e+00  1.22556649e+00  1.41842516e+00 -1.13863592e+00
 -5.31627535e+00  4.08208474e+00 -2.91618975e+00 -2.51196868e+00  4.41418248e+00
 -6.35112667e+00 -1.87455674e+00  5.77455355e-01 -4.92986871e+00 -2.83668743e+00
 -2.30413086e+00  2.11605031e+00 -3.40848087e+00  1.74340651e+00  1.21390931e+00
 -8.97653462e-01  3.72472428e+00  6.33396129e-01 -1.91479741e+00 -2.49604584e+00
  3.10288530e+00  2.77053969e+00 -2.16263113e+00  1.51085069e+00  2.04419399e+00
 -1.75872087e-01  1.25273298e+00  3.69377095e+00  1.88934303e+00  2.54503250e+00
  5.99067838e+00  1.96732163e+00  4.13038126e+00  6.69281982e+00 -2.61165041e-02
  4.40177797e+00  5.07226825e+00 -2.08722274e+00  5.62865146e+00  5.58716931e+00
 -3.65220864e+00  3.39408090e-02  3.19457129e+00  3.46580085e+00  2.31303726e+00
  7.22884016e+00  3.59015669e+00  5.14046374e+00  8.48017110e+00  3.27743470e-02
  3.34401386e+00  1.53732868e+00 -3.78410504e+00 -4.96106551e+00 -6.50508617e+00
  1.36841843e+00 -5.88568799e+00 -7.06649826e+00 -3.97305769e-01 -6.45696994e+00
 -6.01918541e+00  2.75442065e+00 -3.90762581e+00 -8.13553600e+00  2.08626038e+00
  1.14370136e+00 -3.01618451e+00 -4.32524034e+00
Integer atomic weights                     I   N=          31
          14          12          12          12          12          12
           1           1           1           1           1           1
           1           1          12          12          12          12
          12          12          12           1           1           1
           1           1          12           1           1           1
          14
Real atomic weights                        R   N=          31
  1.40030740e+01  1.20000000e+01  1.20000000e+01  1.20000000e+01  1.20000000e+01
  1.20000000e+01  1.00782503e+00  1.00782503e+00  1.00782503e+00  1.00782503e+00
  1.00782503e+00  1.00782503e+00  1.00782503e+00  1.00782503e+00  1.20000000e+01
  1.20000000e+01  1.20000000e+01  1.20000000e+01  1.20000000e+01  1.20000000e+01
  1.20000000e+01  1.00782503e+00  1.00782503e+00  1.00782503e+00  1.00782503e+00
  1.00782503e+00  1.20000000e+01  1.00782503e+00  1.00782503e+00  1.00782503e+00
  1.40030740e+01
Number of primitive shells                 I              319
Number of contracted shells                I              152
Pure/Cartesian d shells                    I                1
Pure/Cartesian f shells                    I                1
Highest angular momentum                   I                2
Largest degree of contraction              I                6
Shell types                                I   N=         152
           0           0           1           0           1           2
           0           1           0           0           1           0
           1           2           0           1           0           0
           1           0           1           2           0           1
           0           0           1           0           1           2
           0           1           0           0           1           0
           1           2           0           1           0           0
           1           0           1           2           0           1
           0           0           0           0           0           0
           0           0           0           0           0           0
           0           0           0           0           0           0
           1           0           1           2           0           1
           0           0           1           0           1           2
           0           1           0           0           1           0
           1           2           0           1           0           0
           1           0           1           2           0           1
           0           0           1           0           1           2
           0           1           0           0           1           0
           1           2           0           1           0           0
           1           0           1           2           0           1
           0           0           0           0           0           0
           0           0           0           0           0           0
           1           0           1           2           0           1
           0           0           0           0           0           0
           0           0           1           0           1           2
           0           1
Number of primitives per shell             I   N=         152
           6           3           3           1           1           1
           1           1           6           3           3           1
           1           1           1           1           6           3
           3           1           1           1           1           1
           6           3           3           1           1           1
           1           1           6           3           3           1
           1           1           1           1           6           3
           3           1           1           1           1           1
           3           1           3           1           3           1
           3           1           3           1           3           1
           3           1           3           1           6           3
           3           1           1           1           1           1
           6           3           3           1           1           1
           1           1           6           3           3           1
           1           1           1           1           6           3
           3           1           1           1           1           1
           6           3           3           1           1           1
           1           1           6           3           3           1
           1           1           1           1           6           3
           3           1           1           1           1           1
           3           1           3           1           3           1
           3           1           3           1           6           3
           3           1           1           1           1           1
           3           1           3           1           3           1
           6           3           3           1           1           1
           1           1
Shell to atom map                          I   N=         152
           1           1           1           1           1           1
           1           1           2           2           2           2
           2           2           2           2           3           3
           3           3           3           3           3           3
           4           4           4           4           4           4
           4           4           5           5           5           5
           5           5           5           5           6           6
           6           6           6           6           6           6
           7           7           8           8           9           9
          10          10          11          11          12          12
          13          13          14          14          15          15
          15          15          15          15          15          15
          16          16          16          16          16          16
          16          16          17          17          17          17
          17          17          17          17          18          18
          18          18          18          18          18          18
          19          19          19          19          19          19
          19          19          20          20          20          20
          20          20          20          20          21          21
          21          21          21          21          21          21
          22          22          23          23          24          24
          25          25          26          26          27          27
          27          27          27          27          27          27
          28          28          29          29          30          30
          31          31          31          31          31          31
          31          31
Primitive exponents                        R   N=         319
  4.17351100e+03  6.27457900e+02  1.42902100e+02  4.02343300e+01  1.28202100e+01
  4.39043700e+00  1.16263580e+01  2.71628000e+00  7.72218000e-01  1.16263580e+01
  2.71628000e+00  7.72218000e-01  2.12031300e-01  2.12031300e-01  8.00000000e-01
  6.39000000e-02  6.39000000e-02  3.04752490e+03  4.57369510e+02  1.03948690e+02
  2.92101550e+01  9.28666300e+00  3.16392700e+00  7.86827240e+00  1.88128850e+00
  5.44249300e-01  7.86827240e+00  1.88128850e+00  5.44249300e-01  1.68714400e-01
  1.68714400e-01  8.00000000e-01  4.38000000e-02  4.38000000e-02  3.04752490e+03
  4.57369510e+02  1.03948690e+02  2.92101550e+01  9.28666300e+00  3.16392700e+00
  7.86827240e+00  1.88128850e+00  5.44249300e-01  7.86827240e+00  1.88128850e+00
  5.44249300e-01  1.68714400e-01  1.68714400e-01  8.00000000e-01  4.38000000e-02
  4.38000000e-02  3.04752490e+03  4.57369510e+02  1.03948690e+02  2.92101550e+01
  9.28666300e+00  3.16392700e+00  7.86827240e+00  1.88128850e+00  5.44249300e-01
  7.86827240e+00  1.88128850e+00  5.44249300e-01  1.68714400e-01  1.68714400e-01
  8.00000000e-01  4.38000000e-02  4.38000000e-02  3.04752490e+03  4.57369510e+02
  1.03948690e+02  2.92101550e+01  9.28666300e+00  3.16392700e+00  7.86827240e+00
  1.88128850e+00  5.44249300e-01  7.86827240e+00  1.88128850e+00  5.44249300e-01
  1.68714400e-01  1.68714400e-01  8.00000000e-01  4.38000000e-02  4.38000000e-02
  3.04752490e+03  4.57369510e+02  1.03948690e+02  2.92101550e+01  9.28666300e+00
  3.16392700e+00  7.86827240e+00  1.88128850e+00  5.44249300e-01  7.86827240e+00
  1.88128850e+00  5.44249300e-01  1.68714400e-01  1.68714400e-01  8.00000000e-01
  4.38000000e-02  4.38000000e-02  1.87311370e+01  2.82539370e+00  6.40121700e-01
  1.61277800e-01  1.87311370e+01  2.82539370e+00  6.40121700e-01  1.61277800e-01
  1.87311370e+01  2.82539370e+00  6.40121700e-01  1.61277800e-01  1.87311370e+01
  2.82539370e+00  6.40121700e-01  1.61277800e-01  1.87311370e+01  2.82539370e+00
  6.40121700e-01  1.61277800e-01  1.87311370e+01  2.82539370e+00  6.40121700e-01
  1.61277800e-01  1.87311370e+01  2.82539370e+00  6.40121700e-01  1.61277800e-01
  1.87311370e+01  2.82539370e+00  6.40121700e-01  1.61277800e-01  3.04752490e+03
  4.57369510e+02  1.03948690e+02  2.92101550e+01  9.28666300e+00  3.16392700e+00
  7.86827240e+00  1.88128850e+00  5.44249300e-01  7.86827240e+00  1.88128850e+00
  5.44249300e-01  1.68714400e-01  1.68714400e-01  8.00000000e-01  4.38000000e-02
  4.38000000e-02  3.04752490e+03  4.57369510e+02  1.03948690e+02  2.92101550e+01
  9.28666300e+00  3.16392700e+00  7.86827240e+00  1.88128850e+00  5.44249300e-01
  7.86827240e+00  1.88128850e+00  5.44249300e-01  1.68714400e-01  1.68714400e-01
  8.00000000e-01  4.38000000e-02  4.38000000e-02  3.04752490e+03  4.57369510e+02
  1.03948690e+02  2.92101550e+01  9.28666300e+00  3.16392700e+00  7.86827240e+00
  1.88128850e+00  5.44249300e-01  7.86827240e+00  1.88128850e+00  5.44249300e-01
  1.68714400e-01  1.68714400e-01  8.00000000e-01  4.38000000e-02  4.38000000e-02
  3.04752490e+03  4.57369510e+02  1.03948690e+02  2.92101550e+01  9.28666300e+00
  3.16392700e+00  7.86827240e+00  1.88128850e+00  5.44249300e-01  7.86827240e+00
  1.88128850e+00  5.44249300e-01  1.68714400e-01  1.68714400e-01  8.00000000e-01
  4.38000000e-02  4.38000000e-02  3.04752490e+03  4.57369510e+02  1.03948690e+02
  2.92101550e+01  9.28666300e+00  3.16392700e+00  7.86827240e+00  1.88128850e+00
  5.44249300e-01  7.86827240e+00  1.88128850e+00  5.44249300e-01  1.68714400e-01
  1.68714400e-01  8.00000000e-01  4.38000000e-02  4.38000000e-02  3.04752490e+03
  4.57369510e+02  1.03948690e+02  2.92101550e+01  9.28666300e+00  3.16392700e+00
  7.86827240e+00  1.88128850e+00  5.44249300e-01  7.86827240e+00  1.88128850e+00
  5.44249300e-01  1.68714400e-01  1.68714400e-01  8.00000000e-01  4.38000000e-02
  4.38000000e-02  3.04752490e+03  4.57369510e+02  1.03948690e+02  2.92101550e+01
  9.28666300e+00  3.16392700e+00  7.86827240e+00  1.88128850e+00  5.44249300e-01
  7.86827240e+00  1.88128850e+00  5.44249300e-01  1.68714400e-01  1.68714400e-01
  8.00000000e-01  4.38000000e-02  4.38000000e-02  1.87311370e+01  2.82539370e+00
  6.40121700e-01  1.61277800e-01  1.87311370e+01  2.82539370e+00  6.40121700e-01
  1.61277800e-01  1.87311370e+01  2.82539370e+00  6.40121700e-01  1.61277800e-01
  1.87311370e+01  2.82539370e+00  6.40121700e-01  1.61277800e-01  1.87311370e+01
  2.82539370e+00  6.40121700e-01  1.61277800e-01  3.04752490e+03  4.57369510e+02
  1.03948690e+02  2.92101550e+01  9.28666300e+00  3.16392700e+00  7.86827240e+00
  1.88128850e+00  5.44249300e-01  7.86827240e+00  1.88128850e+00  5.44249300e-01
  1.68714400e-01  1.68714400e-01  8.00000000e-01  4.38000000e-02  4.38000000e-02
  1.87311370e+01  2.82539370e+00  6.40121700e-01  1.61277800e-01  1.87311370e+01
  2.82539370e+00  6.40121700e-01  1.61277800e-01  1.87311370e+01  2.82539370e+00
  6.40121700e-01  1.61277800e-01  4.17351100e+03  6.27457900e+02  1.42902100e+02
  4.02343300e+01  1.28202100e+01  4.39043700e+00  1.16263580e+01  2.71628000e+00
  7.72218000e-01  1.16263580e+01  2.71628000e+00  7.72218000e-01  2.12031300e-01
  2.12031300e-01  8.00000000e-01  6.39000000e-02  6.39000000e-02
Contraction coefficients                   R   N=         319
  1.83479944e-03  1.39949958e-02  6.85869792e-02  2.32240930e-01  4.69069858e-01
  3.60454891e-01 -1.14961023e-01 -1.69118034e-01  1.14585223e+00  6.75800232e-02
  3.23907111e-01  7.40895255e-01  1.00000000e+00  1.00000000e+00  1.00000000e+00
  1.00000000e+00  1.00000000e+00  1.83470016e-03  1.40373012e-02  6.88426061e-02
  2.32184421e-01  4.67941342e-01  3.62312032e-01 -1.19332409e-01 -1.60854212e-01
  1.14345648e+00  6.89990956e-02  3.16423980e-01  7.44308252e-01  1.00000000e+00
  1.00000000e+00  1.00000000e+00  1.00000000e+00  1.00000000e+00  1.83470016e-03
  1.40373012e-02  6.88426061e-02  2.32184421e-01  4.67941342e-01  3.62312032e-01
 -1.19332409e-01 -1.60854212e-01  1.14345648e+00  6.89990956e-02  3.16423980e-01
  7.44308252e-01  1.00000000e+00  1.00000000e+00  1.00000000e+00  1.00000000e+00
  1.00000000e+00  1.83470016e-03  1.40373012e-02  6.88426061e-02  2.32184421e-01
  4.67941342e-01  3.62312032e-01 -1.19332409e-01 -1.60854212e-01  1.14345648e+00
  6.89990956e-02  3.16423980e-01  7.44308252e-01  1.00000000e+00  1.00000000e+00
  1.00000000e+00  1.00000000e+00  1.00000000e+00  1.83470016e-03  1.40373012e-02
  6.88426061e-02  2.32184421e-01  4.67941342e-01  3.62312032e-01 -1.19332409e-01
 -1.60854212e-01  1.14345648e+00  6.89990956e-02  3.16423980e-01  7.44308252e-01
  1.00000000e+00  1.00000000e+00  1.00000000e+00  1.00000000e+00  1.00000000e+00
  1.83470016e-03  1.40373012e-02  6.88426061e-02  2.32184421e-01  4.67941342e-01
  3.62312032e-01 -1.19332409e-01 -1.60854212e-01  1.14345648e+00  6.89990956e-02
  3.16423980e-01  7.44308252e-01  1.00000000e+00  1.00000000e+00  1.00000000e+00
  1.00000000e+00  1.00000000e+00  3.34945995e-02  2.34726947e-01  8.13757318e-01
  1.00000000e+00  3.34945995e-02  2.34726947e-01  8.13757318e-01  1.00000000e+00
  3.34945995e-02  2.34726947e-01  8.13757318e-01  1.00000000e+00  3.34945995e-02
  2.34726947e-01  8.13757318e-01  1.00000000e+00  3.34945995e-02  2.34726947e-01
  8.13757318e-01  1.00000000e+00  3.34945995e-02  2.34726947e-01  8.13757318e-01
  1.00000000e+00  3.34945995e-02  2.34726947e-01  8.13757318e-01  1.00000000e+00
  3.34945995e-02  2.34726947e-01  8.13757318e-01  1.00000000e+00  1.83470016e-03
  1.40373012e-02  6.88426061e-02  2.32184421e-01  4.67941342e-01  3.62312032e-01
 -1.19332409e-01 -1.60854212e-01  1.14345648e+00  6.89990956e-02  3.16423980e-01
  7.44308252e-01  1.00000000e+00  1.00000000e+00  1.00000000e+00  1.00000000e+00
  1.00000000e+00  1.83470016e-03  1.40373012e-02  6.88426061e-02  2.32184421e-01
  4.67941342e-01  3.62312032e-01 -1.19332409e-01 -1.60854212e-01  1.14345648e+00
  6.89990956e-02  3.16423980e-01  7.44308252e-01  1.00000000e+00  1.00000000e+00
  1.00000000e+00  1.00000000e+00  1.00000000e+00  1.83470016e-03  1.40373012e-02
  6.88426061e-02  2.32184421e-01  4.67941342e-01  3.62312032e-01 -1.19332409e-01
 -1.60854212e-01  1.14345648e+00  6.89990956e-02  3.16423980e-01  7.44308252e-01
  1.00000000e+00  1.00000000e+00  1.00000000e+00  1.00000000e+00  1.00000000e+00
  1.83470016e-03  1.40373012e-02  6.88426061e-02  2.32184421e-01  4.67941342e-01
  3.62312032e-01 -1.19332409e-01 -1.60854212e-01  1.14345648e+00  6.89990956e-02
  3.16423980e-01  7.44308252e-01  1.00000000e+00  1.00000000e+00  1.00000000e+00
  1.00000000e+00  1.00000000e+00  1.83470016e-03  1.40373012e-02  6.88426061e-02
  2.32184421e-01  4.67941342e-01  3.62312032e-01 -1.19332409e-01 -1.60854212e-01
  1.14345648e+00  6.89990956e-02  3.16423980e-01  7.44308252e-01  1.00000000e+00
  1.00000000e+00  1.00000000e+00  1.00000000e+00  1.00000000e+00  1.83470016e-03
  1.40373012e-02  6.88426061e-02  2.32184421e-01  4.67941342e-01  3.62312032e-01
 -1.19332409e-01 -1.60854212e-01  1.14345648e+00  6.89990956e-02  3.16423980e-01
  7.44308252e-01  1.00000000e+00  1.00000000e+00  1.00000000e+00  1.00000000e+00
  1.00000000e+00  1.83470016e-03  1.40373012e-02  6.88426061e-02  2.32184421e-01
  4.67941342e-01  3.62312032e-01 -1.19332409e-01 -1.60854212e-01  1.14345648e+00
  6.89990956e-02  3.16423980e-01  7.44308252e-01  1.00000000e+00  1.00000000e+00
  1.00000000e+00  1.00000000e+00  1.00000000e+00  3.34945995e-02  2.34726947e-01
  8.13757318e-01  1.00000000e+00  3.34945995e-02  2.34726947e-01  8.13757318e-01
  1.00000000e+00  3.34945995e-02  2.34726947e-01  8.13757318e-01  1.00000000e+00
  3.34945995e-02  2.34726947e-01  8.13757318e-01  1.00000000e+00  3.34945995e-02
  2.34726947e-01  8.13757318e-01  1.00000000e+00  1.83470016e-03  1.40373012e-02
  6.88426061e-02  2.32184421e-01  4.67941342e-01  3.62312032e-01 -1.19332409e-01
 -1.60854212e-01  1.14345648e+00  6.89990956e-02  3.16423980e-01  7.44308252e-01
  1.00000000e+00  1.00000000e+00  1.00000000e+00  1.00000000e+00  1.00000000e+00
  3.34945995e-02  2.34726947e-01  8.13757318e-01  1.00000000e+00  3.34945995e-02
  2.34726947e-01  8.13757318e-01  1.00000000e+00  3.34945995e-02  2.34726947e-01
  8.13757318e-01  1.00000000e+00  1.83479944e-03  1.39949958e-02  6.85869792e-02
  2.32240930e-01  4.69069858e-01  3.60454891e-01 -1.14961023e-01 -1.69118034e-01
  1.14585223e+00  6.75800232e-02  3.23907111e-01  7.40895255e-01  1.00000000e+00
  1.00000000e+00  1.00000000e+00  1.00000000e+00  1.00000000e+00
Coordinates of each shell                  R   N=         456
 -3.24194626e+00 -4.42325098e+00  8.76537484e-01 -3.24194626e+00 -4.42325098e+00
  8.76537484e-01 -3.24194626e+00 -4.42325098e+00  8.76537484e-01 -3.24194626e+00
 -4.42325098e+00  8.76537484e-01 -3.24194626e+00 -4.42325098e+00  8.76537484e-01
 -3.24194626e+00 -4.42325098e+00  8.76537484e-01 -3.24194626e+00 -4.42325098e+00
  8.76537484e-01 -3.24194626e+00 -4.42325098e+00  8.76537484e-01 -1.76735507e+00
 -3.63050033e+00  3.05930561e+00 -1.76735507e+00 -3.63050033e+00  3.05930561e+00
 -1.76735507e+00 -3.63050033e+00  3.05930561e+00 -1.76735507e+00 -3.63050033e+00
  3.05930561e+00 -1.76735507e+00 -3.63050033e+00  3.05930561e+00 -1.76735507e+00
 -3.63050033e+00  3.05930561e+00 -1.76735507e+00 -3.63050033e+00  3.05930561e+00
 -1.76735507e+00 -3.63050033e+00  3.05930561e+00  5.63092866e-01 -2.11709940e+00
  2.18751824e+00  5.63092866e-01 -2.11709940e+00  2.18751824e+00  5.63092866e-01
 -2.11709940e+00  2.18751824e+00  5.63092866e-01 -2.11709940e+00  2.18751824e+00
  5.63092866e-01 -2.11709940e+00  2.18751824e+00  5.63092866e-01 -2.11709940e+00
  2.18751824e+00  5.63092866e-01 -2.11709940e+00  2.18751824e+00  5.63092866e-01
 -2.11709940e+00  2.18751824e+00 -3.24019796e-03 -4.48457697e-01 -2.07621799e-01
 -3.24019796e-03 -4.48457697e-01 -2.07621799e-01 -3.24019796e-03 -4.48457697e-01
 -2.07621799e-01 -3.24019796e-03 -4.48457697e-01 -2.07621799e-01 -3.24019796e-03
 -4.48457697e-01 -2.07621799e-01 -3.24019796e-03 -4.48457697e-01 -2.07621799e-01
 -3.24019796e-03 -4.48457697e-01 -2.07621799e-01 -3.24019796e-03 -4.48457697e-01
 -2.07621799e-01 -4.51680126e+00 -2.29377405e+00 -3.46914551e-01 -4.51680126e+00
 -2.29377405e+00 -3.46914551e-01 -4.51680126e+00 -2.29377405e+00 -3.46914551e-01
 -4.51680126e+00 -2.29377405e+00 -3.46914551e-01 -4.51680126e+00 -2.29377405e+00
 -3.46914551e-01 -4.51680126e+00 -2.29377405e+00 -3.46914551e-01 -4.51680126e+00
 -2.29377405e+00 -3.46914551e-01 -4.51680126e+00 -2.29377405e+00 -3.46914551e-01
 -2.89267032e+00  1.23362822e-01 -2.76461968e-01 -2.89267032e+00  1.23362822e-01
 -2.76461968e-01 -2.89267032e+00  1.23362822e-01 -2.76461968e-01 -2.89267032e+00
  1.23362822e-01 -2.76461968e-01 -2.89267032e+00  1.23362822e-01 -2.76461968e-01
 -2.89267032e+00  1.23362822e-01 -2.76461968e-01 -2.89267032e+00  1.23362822e-01
 -2.76461968e-01 -2.89267032e+00  1.23362822e-01 -2.76461968e-01 -3.33389314e+00
  1.32736172e+00 -1.89978731e+00 -3.33389314e+00  1.32736172e+00 -1.89978731e+00
 -3.33193359e+00  1.22556649e+00  1.41842516e+00 -3.33193359e+00  1.22556649e+00
  1.41842516e+00 -1.13863592e+00 -5.31627535e+00  4.08208474e+00 -1.13863592e+00
 -5.31627535e+00  4.08208474e+00 -2.91618975e+00 -2.51196868e+00  4.41418248e+00
 -2.91618975e+00 -2.51196868e+00  4.41418248e+00 -6.35112667e+00 -1.87455674e+00
  5.77455355e-01 -6.35112667e+00 -1.87455674e+00  5.77455355e-01 -4.92986871e+00
 -2.83668743e+00 -2.30413086e+00 -4.92986871e+00 -2.83668743e+00 -2.30413086e+00
  2.11605031e+00 -3.40848087e+00  1.74340651e+00  2.11605031e+00 -3.40848087e+00
  1.74340651e+00  1.21390931e+00 -8.97653462e-01  3.72472428e+00  1.21390931e+00
 -8.97653462e-01  3.72472428e+00  6.33396129e-01 -1.91479741e+00 -2.49604584e+00
  6.33396129e-01 -1.91479741e+00 -2.49604584e+00  6.33396129e-01 -1.91479741e+00
 -2.49604584e+00  6.33396129e-01 -1.91479741e+00 -2.49604584e+00  6.33396129e-01
 -1.91479741e+00 -2.49604584e+00  6.33396129e-01 -1.91479741e+00 -2.49604584e+00
  6.33396129e-01 -1.91479741e+00 -2.49604584e+00  6.33396129e-01 -1.91479741e+00
 -2.49604584e+00  3.10288530e+00  2.77053969e+00 -2.16263113e+00  3.10288530e+00
  2.77053969e+00 -2.16263113e+00  3.10288530e+00  2.77053969e+00 -2.16263113e+00
  3.10288530e+00  2.77053969e+00 -2.16263113e+00  3.10288530e+00  2.77053969e+00
 -2.16263113e+00  3.10288530e+00  2.77053969e+00 -2.16263113e+00  3.10288530e+00
  2.77053969e+00 -2.16263113e+00  3.10288530e+00  2.77053969e+00 -2.16263113e+00
  1.51085069e+00  2.04419399e+00 -1.75872087e-01  1.51085069e+00  2.04419399e+00
 -1.75872087e-01  1.51085069e+00  2.04419399e+00 -1.75872087e-01  1.51085069e+00
  2.04419399e+00 -1.75872087e-01  1.51085069e+00  2.04419399e+00 -1.75872087e-01
  1.51085069e+00  2.04419399e+00 -1.75872087e-01  1.51085069e+00  2.04419399e+00
 -1.75872087e-01  1.51085069e+00  2.04419399e+00 -1.75872087e-01  1.25273298e+00
  3.69377095e+00  1.88934303e+00  1.25273298e+00  3.69377095e+00  1.88934303e+00
  1.25273298e+00  3.69377095e+00  1.88934303e+00  1.25273298e+00  3.69377095e+00
  1.88934303e+00  1.25273298e+00  3.69377095e+00  1.88934303e+00  1.25273298e+00
  3.69377095e+00  1.88934303e+00  1.25273298e+00  3.69377095e+00  1.88934303e+00
  1.25273298e+00  3.69377095e+00  1.88934303e+00  2.54503250e+00  5.99067838e+00
  1.96732163e+00  2.54503250e+00  5.99067838e+00  1.96732163e+00  2.54503250e+00
  5.99067838e+00  1.96732163e+00  2.54503250e+00  5.99067838e+00  1.96732163e+00
  2.54503250e+00  5.99067838e+00  1.96732163e+00  2.54503250e+00  5.99067838e+00
  1.96732163e+00  2.54503250e+00  5.99067838e+00  1.96732163e+00  2.54503250e+00
  5.99067838e+00  1.96732163e+00  4.13038126e+00  6.69281982e+00 -2.61165041e-02
  4.13038126e+00  6.69281982e+00 -2.61165041e-02  4.13038126e+00  6.69281982e+00
 -2.61165041e-02  4.13038126e+00  6.69281982e+00 -2.61165041e-02  4.13038126e+00
  6.69281982e+00 -2.61165041e-02  4.13038126e+00  6.69281982e+00 -2.61165041e-02
  4.13038126e+00  6.69281982e+00 -2.61165041e-02  4.13038126e+00  6.69281982e+00
 -2.61165041e-02  4.40177797e+00  5.07226825e+00 -2.08722274e+00  4.40177797e+00
  5.07226825e+00 -2.08722274e+00  4.40177797e+00  5.07226825e+00 -2.08722274e+00
  4.40177797e+00  5.07226825e+00 -2.08722274e+00  4.40177797e+00  5.07226825e+00
 -2.08722274e+00  4.40177797e+00  5.07226825e+00 -2.08722274e+00  4.40177797e+00
  5.07226825e+00 -2.08722274e+00  4.40177797e+00  5.07226825e+00 -2.08722274e+00
  5.62865146e+00  5.58716931e+00 -3.65220864e+00  5.62865146e+00  5.58716931e+00
 -3.65220864e+00  3.39408090e-02  3.19457129e+00  3.46580085e+00  3.39408090e-02
  3.19457129e+00  3.46580085e+00  2.31303726e+00  7.22884016e+00  3.59015669e+00
  2.31303726e+00  7.22884016e+00  3.59015669e+00  5.14046374e+00  8.48017110e+00
  3.27743470e-02  5.14046374e+00  8.48017110e+00  3.27743470e-02  3.34401386e+00
  1.53732868e+00 -3.78410504e+00  3.34401386e+00  1.53732868e+00 -3.78410504e+00
 -4.96106551e+00 -6.50508617e+00  1.36841843e+00 -4.96106551e+00 -6.50508617e+00
  1.36841843e+00 -4.96106551e+00 -6.50508617e+00  1.36841843e+00 -4.96106551e+00
 -6.50508617e+00  1.36841843e+00 -4.96106551e+00 -6.50508617e+00  1.36841843e+00
 -4.96106551e+00 -6.50508617e+00  1.36841843e+00 -4.96106551e+00 -6.50508617e+00
  1.36841843e+00 -4.96106551e+00 -6.50508617e+00  1.36841843e+00 -5.88568799e+00
 -7.06649826e+00 -3.97305769e-01 -5.88568799e+00 -7.06649826e+00 -3.97305769e-01
 -6.45696994e+00 -6.01918541e+00  2.75442065e+00 -6.45696994e+00 -6.01918541e+00
  2.75442065e+00 -3.90762581e+00 -8.13553600e+00  2.08626038e+00 -3.90762581e+00
 -8.13553600e+00  2.08626038e+00  1.14370136e+00 -3.01618451e+00 -4.32524034e+00
  1.14370136e+00 -3.01618451e+00 -4.32524034e+00  1.14370136e+00 -3.01618451e+00
 -4.32524034e+00  1.14370136e+00 -3.01618451e+00 -4.32524034e+00  1.14370136e+00
 -3.01618451e+00 -4.32524034e+00  1.14370136e+00 -3.01618451e+00 -4.32524034e+00
  1.14370136e+00 -3.01618451e+00 -4.32524034e+00  1.14370136e+00 -3.01618451e+00
 -4.32524034e+00
Total Energy                               R     -6.145097896423356e+02
Alpha Orbital Energies                     R   N=         317
 -1.43395382e+01 -1.43355691e+01 -1.02565266e+01 -1.02268355e+01 -1.02249529e+01
 -1.02228328e+01 -1.02206845e+01 -1.02125210e+01 -1.02119288e+01 -1.02079515e+01
 -1.02077971e+01 -1.02068271e+01 -1.02047192e+01 -1.02041659e+01 -1.02024064e+01
 -9.42543639e-01 -9.07499990e-01 -8.74531066e-01 -8.33616883e-01 -7.71218344e-01
 -7.61038407e-01 -7.58405768e-01 -7.11960781e-01 -6.58328204e-01 -6.51926411e-01
 -6.21933435e-01 -6.07308264e-01 -5.69523141e-01 -5.40885746e-01 -5.15222376e-01
 -4.94560043e-01 -4.86603996e-01 -4.75846112e-01 -4.62778445e-01 -4.46179280e-01
 -4.37211233e-01 -4.34884677e-01 -4.29012995e-01 -4.20510708e-01 -4.06843892e-01
 -4.01435566e-01 -3.81438675e-01 -3.78017755e-01 -3.70493471e-01 -3.64701269e-01
 -3.60806000e-01 -3.52838672e-01 -3.46421782e-01 -3.42927433e-01 -3.21873438e-01
 -3.20652928e-01 -2.65231627e-01 -2.59935704e-01 -2.22424172e-01 -2.67806777e-02
 -2.10690435e-02 -6.60804046e-03  4.97007023e-03  1.13490706e-02  1.44266634e-02
  1.81627002e-02  2.61396209e-02  2.86843189e-02  3.61015100e-02  3.83481690e-02
  4.47100779e-02  4.60085957e-02  5.13422897e-02  5.36965348e-02  5.64906865e-02
  6.55537029e-02  6.75219527e-02  7.48177030e-02  8.12819470e-02  8.60527708e-02
  8.74465732e-02  9.46094789e-02  1.03031923e-01  1.03958899e-01  1.09589699e-01
  1.12022811e-01  1.16255161e-01  1.18755435e-01  1.25965961e-01  1.30384445e-01
  1.38378610e-01  1.45138319e-01  1.47959166e-01  1.55607695e-01  1.58192971e-01
  1.59558525e-01  1.67524416e-01  1.69357315e-01  1.74307616e-01  1.76345889e-01
  1.78371260e-01  1.80702264e-01  1.88574524e-01  1.93952809e-01  1.96008290e-01