Generated by Psi4
     FORCE                           RHF                       TESTBAS
Number of atoms                            I               36
Charge                                     I                0
Multiplicity                               I                1
Number of electrons                        I              126
Number of alpha electrons                  I               63
Number of beta electrons                   I               63
Number of basis functions                  I              361
Number of independent functions            I              361
Atomic numbers                             I   N=          36
           7           6           6           6           6           6
           1           1           1           1           1           1
           1           1           6           6           6           6
           6           6           6           1           1           1
           1           8           1           8           6           6
           1           1           1           1           1           1
Nuclear charges                            R   N=          36
  7.00000000e+00  6.00000000e+00  6.00000000e+00  6.00000000e+00  6.00000000e+00
  6.00000000e+00  1.00000000e+00  1.00000000e+00  1.00000000e+00  1.00000000e+00
  1.00000000e+00  1.00000000e+00  1.00000000e+00  1.00000000e+00  6.00000000e+00
  6.00000000e+00  6.00000000e+00  6.00000000e+00  6.00000000e+00  6.00000000e+00
  6.00000000e+00  1.00000000e+00  1.00000000e+00  1.00000000e+00  1.00000000e+00
  8.00000000e+00  1.00000000e+00  8.00000000e+00  6.00000000e+00  6.00000000e+00
  1.00000000e+00  1.00000000e+00  1.00000000e+00  1.00000000e+00  1.00000000e+00
  1.00000000e+00
Current cartesian coordinates              R   N=         108
 -4.05282528e+00 -3.73880765e+00  4.42513697e+00 -1.61424811e+00 -2.66514394e+00
  5.24245216e+00  3.52090418e-01 -2.53052935e+00  3.11706038e+00 -5.79220130e-01
 -8.29413961e-01  8.77632171e-01 -4.66246255e+00 -3.22815191e+00  1.75401313e+00
 -3.51519886e+00 -6.92152960e-01  9.70863943e-01 -4.27302226e+00 -8.83851534e-02
 -8.51907286e-01 -4.09492113e+00  7.15180821e-01  2.37382100e+00 -8.89174680e-01
 -3.82170906e+00  6.79928575e+00 -1.93364670e+00 -7.70764601e-01  6.03106901e+00
 -6.72309729e+00 -3.16288498e+00  1.53462797e+00 -3.96706971e+00 -4.72544373e+00
  4.74989861e-01  7.24293884e-01 -4.43752244e+00  2.40732586e+00  2.14607330e+00
 -1.82846421e+00  3.86768668e+00  2.87584812e-01 -2.04195653e+00 -1.64026032e+00
  3.33528177e+00  1.97720128e+00  1.01180586e+00  6.84209508e-01  1.80718516e+00
  9.15778974e-01 -6.92867877e-01  4.06558117e+00  7.72103124e-01  5.27971267e-01
  6.41136924e+00  7.79978167e-01  3.15771372e+00  6.54905600e+00  9.04734404e-01
  4.55978921e+00  4.31236002e+00  1.01040668e+00  6.61188581e+00  4.38178976e+00
  1.08842550e+00 -2.73749813e+00  4.02948367e+00  6.40840295e-01 -5.92364318e-01
  8.13107035e+00  6.81643386e-01  4.10513905e+00  8.37168024e+00  9.11225405e-01
  1.89707702e+00 -3.67120613e+00 -1.82677728e+00  4.46249698e+00  2.60789802e-01
  1.06845580e+00 -9.02579568e-01 -1.01880742e+00 -3.65022800e+00 -1.33281385e-01
 -1.86105184e+00 -6.14485433e+00  2.09749274e+00 -3.32985022e-01 -7.12150643e+00
 -1.81513966e+00 -1.57194729e+00 -7.30845665e+00  3.07333602e-01 -3.87670977e+00
 -6.05744211e+00  1.65650168e+00  1.68912989e+00 -7.13929716e+00  2.54382303e+00
 -9.20458366e-01 -9.05888269e+00  3.77460255e+00 -6.39378866e-01 -5.95150548e+00
 -4.08198943e+00 -5.63022110e+00  4.75353442e+00
Integer atomic weights                     I   N=          36
          14          12          12          12          12          12
           1           1           1           1           1           1
           1           1          12          12          12          12
          12          12          12           1           1           1
           1          15           1          15          12          12
           1           1           1           1           1           1
Real atomic weights                        R   N=          36
  1.40030740e+01  1.20000000e+01  1.20000000e+01  1.20000000e+01  1.20000000e+01
  1.20000000e+01  1.00782503e+00  1.00782503e+00  1.00782503e+00  1.00782503e+00
  1.00782503e+00  1.00782503e+00  1.00782503e+00  1.00782503e+00  1.20000000e+01
  1.20000000e+01  1.20000000e+01  1.20000000e+01  1.20000000e+01  1.20000000e+01
  1.20000000e+01  1.00782503e+00  1.00782503e+00  1.00782503e+00  1.00782503e+00
  1.59949146e+01  1.00782503e+00  1.59949146e+01  1.20000000e+01  1.20000000e+01
  1.00782503e+00  1.00782503e+00  1.00782503e+00  1.00782503e+00  1.00782503e+00
  1.00782503e+00
Number of primitive shells                 I              365
Number of contracted shells                I              174
Pure/Cartesian d shells                    I                1
Pure/Cartesian f shells                    I                1
Highest angular momentum                   I                2
Largest degree of contraction              I                6
Shell types                                I   N=         174
           0           0           1           0           1           2
           0           1           0           0           1           0
           1           2           0           1           0           0
           1           0           1           2           0           1
           0           0           1           0           1           2
           0           1           0           0           1           0
           1           2           0           1           0           0
           1           0           1           2           0           1
           0           0           0           0           0           0
           0           0           0           0           0           0
           0           0           0           0           0           0
           1           0           1           2           0           1
           0           0           1           0           1           2
           0           1           0           0           1           0
           1           2           0           1           0           0
           1           0           1           2           0           1
           0           0           1           0           1           2
           0           1           0           0           1           0
           1           2           0           1           0           0
           1           0           1           2           0           1
           0           0           0           0           0           0
           0           0           0           0           1           0
           1           2           0           1           0           0
           0           0           1           0           1           2
           0           1           0           0           1           0
           1           2           0           1           0           0
           1           0           1           2           0           1
           0           0           0           0           0           0
           0           0           0           0           0           0
Number of primitives per shell             I   N=         174
           6           3           3           1           1           1
           1           1           6           3           3           1
           1           1           1           1           6           3
           3           1           1           1           1           1
           6           3           3           1           1           1
           1           1           6           3           3           1
           1           1           1           1           6           3
           3           1           1           1           1           1
           3           1           3           1           3           1
           3           1           3           1           3           1
           3           1           3           1           6           3
           3           1           1           1           1           1
           6           3           3           1           1           1
           1           1           6           3           3           1
           1           1           1           1           6           3
           3           1           1           1           1           1
           6           3           3           1           1           1
           1           1           6           3           3           1
           1           1           1           1           6           3
           3           1           1           1           1           1
           3           1           3           1           3           1
           3           1           6           3           3           1
           1           1           1           1           3           1
           6           3           3           1           1           1
           1           1           6           3           3           1
           1           1           1           1           6           3
           3           1           1           1           1           1
           3           1           3           1           3           1
           3           1           3           1           3           1
Shell to atom map                          I   N=         174
           1           1           1           1           1           1
           1           1           2           2           2           2
           2           2           2           2           3           3
           3           3           3           3           3           3
           4           4           4           4           4           4
           4           4           5           5           5           5
           5           5           5           5           6           6
           6           6           6           6           6           6
           7           7           8           8           9           9
          10          10          11          11          12          12
          13          13          14          14          15          15
          15          15          15          15          15          15
          16          16          16          16          16          16
          16          16          17          17          17          17
          17          17          17          17          18          18
          18          18          18          18          18          18
          19          19          19          19          19          19
          19          19          20          20          20          20
          20          20          20          20          21          21
          21          21          21          21          21          21
          22          22          23          23          24          24
          25          25          26          26          26          26
          26          26          26          26          27          27
          28          28          28          28          28          28
          28          28          29          29          29          29
          29          29          29          29          30          30
          30          30          30          30          30          30
          31          31          32          32          33          33
          34          34          35          35          36          36
Primitive exponents                        R   N=         365
  4.17351100e+03  6.27457900e+02  1.42902100e+02  4.02343300e+01  1.28202100e+01
  4.39043700e+00  1.16263580e+01  2.71628000e+00  7.72218000e-01  1.16263580e+01
  2.71628000e+00  7.72218000e-01  2.12031300e-01  2.12031300e-01  8.00000000e-01
  6.39000000e-02  6.39000000e-02  3.04752490e+03  4.57369510e+02  1.03948690e+02
  2.92101550e+01  9.28666300e+00  3.16392700e+00  7.86827240e+00  1.88128850e+00
  5.44249300e-01  7.86827240e+00  1.88128850e+00  5.44249300e-01  1.68714400e-01
  1.68714400e-01  8.00000000e-01  4.38000000e-02  4.38000000e-02  3.04752490e+03
  4.57369510e+02  1.03948690e+02  2.92101550e+01  9.28666300e+00  3.16392700e+00
  7.86827240e+00  1.88128850e+00  5.44249300e-01  7.86827240e+00  1.88128850e+00
  5.44249300e-01  1.68714400e-01  1.68714400e-01  8.00000000e-01  4.38000000e-02
  4.38000000e-02  3.04752490e+03  4.57369510e+02  1.03948690e+02  2.92101550e+01
  9.28666300e+00  3.16392700e+00  7.86827240e+00  1.88128850e+00  5.44249300e-01
  7.86827240e+00  1.88128850e+00  5.44249300e-01  1.68714400e-01  1.68714400e-01
  8.00000000e-01  4.38000000e-02  4.38000000e-02  3.04752490e+03  4.57369510e+02
  1.03948690e+02  2.92101550e+01  9.28666300e+00  3.16392700e+00  7.86827240e+00
  1.88128850e+00  5.44249300e-01  7.86827240e+00  1.88128850e+00  5.44249300e-01
  1.68714400e-01  1.68714400e-01  8.00000000e-01  4.38000000e-02  4.38000000e-02
  3.04752490e+03  4.57369510e+02  1.03948690e+02  2.92101550e+01  9.28666300e+00
  3.16392700e+00  7.86827240e+00  1.88128850e+00  5.44249300e-01  7.86827240e+00
  1.88128850e+00  5.44249300e-01  1.68714400e-01  1.68714400e-01  8.00000000e-01
  4.38000000e-02  4.38000000e-02  1.87311370e+01  2.82539370e+00  6.40121700e-01
  1.61277800e-01  1.87311370e+01  2.82539370e+00  6.40121700e-01  1.61277800e-01
  1.87311370e+01  2.82539370e+00  6.40121700e-01  1.61277800e-01  1.87311370e+01
  2.82539370e+00  6.40121700e-01  1.61277800e-01  1.87311370e+01  2.82539370e+00
  6.40121700e-01  1.61277800e-01  1.87311370e+01  2.82539370e+00  6.40121700e-01
  1.61277800e-01  1.87311370e+01  2.82539370e+00  6.40121700e-01  1.61277800e-01
  1.87311370e+01  2.82539370e+00  6.40121700e-01  1.61277800e-01  3.04752490e+03
  4.57369510e+02  1.03948690e+02  2.92101550e+01  9.28666300e+00  3.16392700e+00
  7.86827240e+00  1.88128850e+00  5.44249300e-01  7.86827240e+00  1.88128850e+00
  5.44249300e-01  1.68714400e-01  1.68714400e-01  8.00000000e-01  4.38000000e-02
  4.38000000e-02  3.04752490e+03  4.57369510e+02  1.03948690e+02  2.92101550e+01
  9.28666300e+00  3.16392700e+00  7.86827240e+00  1.88128850e+00  5.44249300e-01
  7.86827240e+00  1.88128850e+00  5.44249300e-01  1.68714400e-01  1.68714400e-01
  8.00000000e-01  4.38000000e-02  4.38000000e-02  3.04752490e+03  4.57369510e+02
  1.03948690e+02  2.92101550e+01  9.28666300e+00  3.16392700e+00  7.86827240e+00
  1.88128850e+00  5.44249300e-01  7.86827240e+00  1.88128850e+00  5.44249300e-01
  1.68714400e-01  1.68714400e-01  8.00000000e-01  4.38000000e-02  4.38000000e-02
  3.04752490e+03  4.57369510e+02  1.03948690e+02  2.92101550e+01  9.28666300e+00
  3.16392700e+00  7.86827240e+00  1.88128850e+00  5.44249300e-01  7.86827240e+00
  1.88128850e+00  5.44249300e-01  1.68714400e-01  1.68714400e-01  8.00000000e-01
  4.38000000e-02  4.38000000e-02  3.04752490e+03  4.57369510e+02  1.03948690e+02
  2.92101550e+01  9.28666300e+00  3.16392700e+00  7.86827240e+00  1.88128850e+00
  5.44249300e-01  7.86827240e+00  1.88128850e+00  5.44249300e-01  1.68714400e-01
  1.68714400e-01  8.00000000e-01  4.38000000e-02  4.38000000e-02  3.04752490e+03
  4.57369510e+02  1.03948690e+02  2.92101550e+01  9.28666300e+00  3.16392700e+00
  7.86827240e+00  1.88128850e+00  5.44249300e-01  7.86827240e+00  1.88128850e+00
  5.44249300e-01  1.68714400e-01  1.68714400e-01  8.00000000e-01  4.38000000e-02
  4.38000000e-02  3.04752490e+03  4.57369510e+02  1.03948690e+02  2.92101550e+01
  9.28666300e+00  3.16392700e+00  7.86827240e+00  1.88128850e+00  5.44249300e-01
  7.86827240e+00  1.88128850e+00  5.44249300e-01  1.68714400e-01  1.68714400e-01
  8.00000000e-01  4.38000000e-02  4.38000000e-02  1.87311370e+01  2.82539370e+00
  6.40121700e-01  1.61277800e-01  1.87311370e+01  2.82539370e+00  6.40121700e-01
  1.61277800e-01  1.87311370e+01  2.82539370e+00  6.40121700e-01  1.61277800e-01
  1.87311370e+01  2.82539370e+00  6.40121700e-01  1.61277800e-01  5.48467170e+03
  8.25234950e+02  1.88046960e+02  5.29645000e+01  1.68975700e+01  5.79963530e+00
  1.55396160e+01  3.59993360e+00  1.01376180e+00  1.55396160e+01  3.59993360e+00
  1.01376180e+00  2.70005800e-01  2.70005800e-01  8.00000000e-01  8.45000000e-02
  8.45000000e-02  1.87311370e+01  2.82539370e+00  6.40121700e-01  1.61277800e-01
  5.48467170e+03  8.25234950e+02  1.88046960e+02  5.29645000e+01  1.68975700e+01
  5.79963530e+00  1.55396160e+01  3.59993360e+00  1.01376180e+00  1.55396160e+01
  3.59993360e+00  1.01376180e+00  2.70005800e-01  2.70005800e-01  8.00000000e-01
  8.45000000e-02  8.45000000e-02  3.04752490e+03  4.57369510e+02  1.03948690e+02
  2.92101550e+01  9.28666300e+00  3.16392700e+00  7.86827240e+00  1.88128850e+00
  5.44249300e-01  7.86827240e+00  1.88128850e+00  5.44249300e-01  1.68714400e-01
  1.68714400e-01  8.00000000e-01  4.38000000e-02  4.38000000e-02  3.04752490e+03
  4.57369510e+02  1.03948690e+02  2.92101550e+01  9.28666300e+00  3.16392700e+00
  7.86827240e+00  1.88128850e+00  5.44249300e-01  7.86827240e+00  1.88128850e+00
  5.44249300e-01  1.68714400e-01  1.68714400e-01  8.00000000e-01  4.38000000e-02
  4.38000000e-02  1.87311370e+01  2.82539370e+00  6.40121700e-01  1.61277800e-01
  1.87311370e+01  2.82539370e+00  6.40121700e-01  1.61277800e-01  1.87311370e+01
  2.82539370e+00  6.40121700e-01  1.61277800e-01  1.87311370e+01  2.82539370e+00
  6.40121700e-01  1.61277800e-01  1.87311370e+01  2.82539370e+00  6.40121700e-01
  1.61277800e-01  1.87311370e+01  2.82539370e+00  6.40121700e-01  1.61277800e-01
Contraction coefficients                   R   N=         365
  1.83479944e-03  1.39949958e-02  6.85869792e-02  2.32240930e-01  4.69069858e-01
  3.60454891e-01 -1.14961023e-01 -1.69118034e-01  1.14585223e+00  6.75800232e-02
  3.23907111e-01  7.40895255e-01  1.00000000e+00  1.00000000e+00  1.00000000e+00
  1.00000000e+00  1.00000000e+00  1.83470016e-03  1.40373012e-02  6.88426061e-02
  2.32184421e-01  4.67941342e-01  3.62312032e-01 -1.19332409e-01 -1.60854212e-01
  1.14345648e+00  6.89990956e-02  3.16423980e-01  7.44308252e-01  1.00000000e+00
  1.00000000e+00  1.00000000e+00  1.00000000e+00  1.00000000e+00  1.83470016e-03
  1.40373012e-02  6.88426061e-02  2.32184421e-01  4.67941342e-01  3.62312032e-01
 -1.19332409e-01 -1.60854212e-01  1.14345648e+00  6.89990956e-02  3.16423980e-01
  7.44308252e-01  1.00000000e+00  1.00000000e+00  1.00000000e+00  1.00000000e+00
  1.00000000e+00  1.83470016e-03  1.40373012e-02  6.88426061e-02  2.32184421e-01
  4.67941342e-01  3.62312032e-01 -1.19332409e-01 -1.60854212e-01  1.14345648e+00
  6.89990956e-02  3.16423980e-01  7.44308252e-01  1.00000000e+00  1.00000000e+00
  1.00000000e+00  1.00000000e+00  1.00000000e+00  1.83470016e-03  1.40373012e-02
  6.88426061e-02  2.32184421e-01  4.67941342e-01  3.62312032e-01 -1.19332409e-01
 -1.60854212e-01  1.14345648e+00  6.89990956e-02  3.16423980e-01  7.44308252e-01
  1.00000000e+00  1.00000000e+00  1.00000000e+00  1.00000000e+00  1.00000000e+00
  1.83470016e-03  1.40373012e-02  6.88426061e-02  2.32184421e-01  4.67941342e-01
  3.62312032e-01 -1.19332409e-01 -1.60854212e-01  1.14345648e+00  6.89990956e-02
  3.16423980e-01  7.44308252e-01  1.00000000e+00  1.00000000e+00  1.00000000e+00
  1.00000000e+00  1.00000000e+00  3.34945995e-02  2.34726947e-01  8.13757318e-01
  1.00000000e+00  3.34945995e-02  2.34726947e-01  8.13757318e-01  1.00000000e+00
  3.34945995e-02  2.34726947e-01  8.13757318e-01  1.00000000e+00  3.34945995e-02
  2.34726947e-01  8.13757318e-01  1.00000000e+00  3.34945995e-02  2.34726947e-01
  8.13757318e-01  1.00000000e+00  3.34945995e-02  2.34726947e-01  8.13757318e-01
  1.00000000e+00  3.34945995e-02  2.34726947e-01  8.13757318e-01  1.00000000e+00
  3.34945995e-02  2.34726947e-01  8.13757318e-01  1.00000000e+00  1.83470016e-03
  1.40373012e-02  6.88426061e-02  2.32184421e-01  4.67941342e-01  3.62312032e-01
 -1.19332409e-01 -1.60854212e-01  1.14345648e+00  6.89990956e-02  3.16423980e-01
  7.44308252e-01  1.00000000e+00  1.00000000e+00  1.00000000e+00  1.00000000e+00
  1.00000000e+00  1.83470016e-03  1.40373012e-02  6.88426061e-02  2.32184421e-01
  4.67941342e-01  3.62312032e-01 -1.19332409e-01 -1.60854212e-01  1.14345648e+00
  6.89990956e-02  3.16423980e-01  7.44308252e-01  1.00000000e+00  1.00000000e+00
  1.00000000e+00  1.00000000e+00  1.00000000e+00  1.83470016e-03  1.40373012e-02
  6.88426061e-02  2.32184421e-01  4.67941342e-01  3.62312032e-01 -1.19332409e-01
 -1.60854212e-01  1.14345648e+00  6.89990956e-02  3.16423980e-01  7.44308252e-01
  1.00000000e+00  1.00000000e+00  1.00000000e+00  1.00000000e+00  1.00000000e+00
  1.83470016e-03  1.40373012e-02  6.88426061e-02  2.32184421e-01  4.67941342e-01
  3.62312032e-01 -1.19332409e-01 -1.60854212e-01  1.14345648e+00  6.89990956e-02
  3.16423980e-01  7.44308252e-01  1.00000000e+00  1.00000000e+00  1.00000000e+00
  1.00000000e+00  1.00000000e+00  1.83470016e-03  1.40373012e-02  6.88426061e-02
  2.32184421e-01  4.67941342e-01  3.62312032e-01 -1.19332409e-01 -1.60854212e-01
  1.14345648e+00  6.89990956e-02  3.16423980e-01  7.44308252e-01  1.00000000e+00
  1.00000000e+00  1.00000000e+00  1.00000000e+00  1.00000000e+00  1.83470016e-03
  1.40373012e-02  6.88426061e-02  2.32184421e-01  4.67941342e-01  3.62312032e-01
 -1.19332409e-01 -1.60854212e-01  1.14345648e+00  6.89990956e-02  3.16423980e-01
  7.44308252e-01  1.00000000e+00  1.00000000e+00  1.00000000e+00  1.00000000e+00
  1.00000000e+00  1.83470016e-03  1.40373012e-02  6.88426061e-02  2.32184421e-01
  4.67941342e-01  3.62312032e-01 -1.19332409e-01 -1.60854212e-01  1.14345648e+00
  6.89990956e-02  3.16423980e-01  7.44308252e-01  1.00000000e+00  1.00000000e+00
  1.00000000e+00  1.00000000e+00  1.00000000e+00  3.34945995e-02  2.34726947e-01
  8.13757318e-01  1.00000000e+00  3.34945995e-02  2.34726947e-01  8.13757318e-01
  1.00000000e+00  3.34945995e-02  2.34726947e-01  8.13757318e-01  1.00000000e+00
  3.34945995e-02  2.34726947e-01  8.13757318e-01  1.00000000e+00  1.83109981e-03
  1.39500985e-02  6.84450927e-02  2.32714275e-01  4.70192950e-01  3.58520862e-01
 -1.10777504e-01 -1.48026305e-01  1.13076704e+00  7.08742995e-02  3.39752798e-01
  7.27158595e-01  1.00000000e+00  1.00000000e+00  1.00000000e+00  1.00000000e+00
  1.00000000e+00  3.34945995e-02  2.34726947e-01  8.13757318e-01  1.00000000e+00
  1.83109981e-03  1.39500985e-02  6.84450927e-02  2.32714275e-01  4.70192950e-01
  3.58520862e-01 -1.10777504e-01 -1.48026305e-01  1.13076704e+00  7.08742995e-02
  3.39752798e-01  7.27158595e-01  1.00000000e+00  1.00000000e+00  1.00000000e+00
  1.00000000e+00  1.00000000e+00  1.83470016e-03  1.40373012e-02  6.88426061e-02
  2.32184421e-01  4.67941342e-01  3.62312032e-01 -1.19332409e-01 -1.60854212e-01
  1.14345648e+00  6.89990956e-02  3.16423980e-01  7.44308252e-01  1.00000000e+00
  1.00000000e+00  1.00000000e+00  1.00000000e+00  1.00000000e+00  1.83470016e-03
  1.40373012e-02  6.88426061e-02  2.32184421e-01  4.67941342e-01  3.62312032e-01
 -1.19332409e-01 -1.60854212e-01  1.14345648e+00  6.89990956e-02  3.16423980e-01
  7.44308252e-01  1.00000000e+00  1.00000000e+00  1.00000000e+00  1.00000000e+00
  1.00000000e+00  3.34945995e-02  2.34726947e-01  8.13757318e-01  1.00000000e+00
  3.34945995e-02  2.34726947e-01  8.13757318e-01  1.00000000e+00  3.34945995e-02
  2.34726947e-01  8.13757318e-01  1.00000000e+00  3.34945995e-02  2.34726947e-01
  8.13757318e-01  1.00000000e+00  3.34945995e-02  2.34726947e-01  8.13757318e-01
  1.00000000e+00  3.34945995e-02  2.34726947e-01  8.13757318e-01  1.00000000e+00
Coordinates of each shell                  R   N=         522
 -4.05282528e+00 -3.73880765e+00  4.42513697e+00 -4.05282528e+00 -3.73880765e+00
  4.42513697e+00 -4.05282528e+00 -3.73880765e+00  4.42513697e+00 -4.05282528e+00
 -3.73880765e+00  4.42513697e+00 -4.05282528e+00 -3.73880765e+00  4.42513697e+00
 -4.05282528e+00 -3.73880765e+00  4.42513697e+00 -4.05282528e+00 -3.73880765e+00
  4.42513697e+00 -4.05282528e+00 -3.73880765e+00  4.42513697e+00 -1.61424811e+00
 -2.66514394e+00  5.24245216e+00 -1.61424811e+00 -2.66514394e+00  5.24245216e+00
 -1.61424811e+00 -2.66514394e+00  5.24245216e+00 -1.61424811e+00 -2.66514394e+00
  5.24245216e+00 -1.61424811e+00 -2.66514394e+00  5.24245216e+00 -1.61424811e+00
 -2.66514394e+00  5.24245216e+00 -1.61424811e+00 -2.66514394e+00  5.24245216e+00
 -1.61424811e+00 -2.66514394e+00  5.24245216e+00  3.52090418e-01 -2.53052935e+00
  3.11706038e+00  3.52090418e-01 -2.53052935e+00  3.11706038e+00  3.52090418e-01
 -2.53052935e+00  3.11706038e+00  3.52090418e-01 -2.53052935e+00  3.11706038e+00
  3.52090418e-01 -2.53052935e+00  3.11706038e+00  3.52090418e-01 -2.53052935e+00
  3.11706038e+00  3.52090418e-01 -2.53052935e+00  3.11706038e+00  3.52090418e-01
 -2.53052935e+00  3.11706038e+00 -5.79220130e-01 -8.29413961e-01  8.77632171e-01
 -5.79220130e-01 -8.29413961e-01  8.77632171e-01 -5.79220130e-01 -8.29413961e-01
  8.77632171e-01 -5.79220130e-01 -8.29413961e-01  8.77632171e-01 -5.79220130e-01
 -8.29413961e-01  8.77632171e-01 -5.79220130e-01 -8.29413961e-01  8.77632171e-01
 -5.79220130e-01 -8.29413961e-01  8.77632171e-01 -5.79220130e-01 -8.29413961e-01
  8.77632171e-01 -4.66246255e+00 -3.22815191e+00  1.75401313e+00 -4.66246255e+00
 -3.22815191e+00  1.75401313e+00 -4.66246255e+00 -3.22815191e+00  1.75401313e+00
 -4.66246255e+00 -3.22815191e+00  1.75401313e+00 -4.66246255e+00 -3.22815191e+00
  1.75401313e+00 -4.66246255e+00 -3.22815191e+00  1.75401313e+00 -4.66246255e+00
 -3.22815191e+00  1.75401313e+00 -4.66246255e+00 -3.22815191e+00  1.75401313e+00
 -3.51519886e+00 -6.92152960e-01  9.70863943e-01 -3.51519886e+00 -6.92152960e-01
  9.70863943e-01 -3.51519886e+00 -6.92152960e-01  9.70863943e-01 -3.51519886e+00
 -6.92152960e-01  9.70863943e-01 -3.51519886e+00 -6.92152960e-01  9.70863943e-01
 -3.51519886e+00 -6.92152960e-01  9.70863943e-01 -3.51519886e+00 -6.92152960e-01
  9.70863943e-01 -3.51519886e+00 -6.92152960e-01  9.70863943e-01 -4.27302226e+00
 -8.83851534e-02 -8.51907286e-01 -4.27302226e+00 -8.83851534e-02 -8.51907286e-01
 -4.09492113e+00  7.15180821e-01  2.37382100e+00 -4.09492113e+00  7.15180821e-01
  2.37382100e+00 -8.89174680e-01 -3.82170906e+00  6.79928575e+00 -8.89174680e-01
 -3.82170906e+00  6.79928575e+00 -1.93364670e+00 -7.70764601e-01  6.03106901e+00
 -1.93364670e+00 -7.70764601e-01  6.03106901e+00 -6.72309729e+00 -3.16288498e+00
  1.53462797e+00 -6.72309729e+00 -3.16288498e+00  1.53462797e+00 -3.96706971e+00
 -4.72544373e+00  4.74989861e-01 -3.96706971e+00 -4.72544373e+00  4.74989861e-01
  7.24293884e-01 -4.43752244e+00  2.40732586e+00  7.24293884e-01 -4.43752244e+00
  2.40732586e+00  2.14607330e+00 -1.82846421e+00  3.86768668e+00  2.14607330e+00
 -1.82846421e+00  3.86768668e+00  2.87584812e-01 -2.04195653e+00 -1.64026032e+00
  2.87584812e-01 -2.04195653e+00 -1.64026032e+00  2.87584812e-01 -2.04195653e+00
 -1.64026032e+00  2.87584812e-01 -2.04195653e+00 -1.64026032e+00  2.87584812e-01
 -2.04195653e+00 -1.64026032e+00  2.87584812e-01 -2.04195653e+00 -1.64026032e+00
  2.87584812e-01 -2.04195653e+00 -1.64026032e+00  2.87584812e-01 -2.04195653e+00
 -1.64026032e+00  3.33528177e+00  1.97720128e+00  1.01180586e+00  3.33528177e+00
  1.97720128e+00  1.01180586e+00  3.33528177e+00  1.97720128e+00  1.01180586e+00
  3.33528177e+00  1.97720128e+00  1.01180586e+00  3.33528177e+00  1.97720128e+00
  1.01180586e+00  3.33528177e+00  1.97720128e+00  1.01180586e+00  3.33528177e+00
  1.97720128e+00  1.01180586e+00  3.33528177e+00  1.97720128e+00  1.01180586e+00
  6.84209508e-01  1.80718516e+00  9.15778974e-01  6.84209508e-01  1.80718516e+00
  9.15778974e-01  6.84209508e-01  1.80718516e+00  9.15778974e-01  6.84209508e-01
  1.80718516e+00  9.15778974e-01  6.84209508e-01  1.80718516e+00  9.15778974e-01
  6.84209508e-01  1.80718516e+00  9.15778974e-01  6.84209508e-01  1.80718516e+00
  9.15778974e-01  6.84209508e-01  1.80718516e+00  9.15778974e-01 -6.92867877e-01
  4.06558117e+00  7.72103124e-01 -6.92867877e-01  4.06558117e+00  7.72103124e-01
 -6.92867877e-01  4.06558117e+00  7.72103124e-01 -6.92867877e-01  4.06558117e+00
  7.72103124e-01 -6.92867877e-01  4.06558117e+00  7.72103124e-01 -6.92867877e-01
  4.06558117e+00  7.72103124e-01 -6.92867877e-01  4.06558117e+00  7.72103124e-01
 -6.92867877e-01  4.06558117e+00  7.72103124e-01  5.27971267e-01  6.41136924e+00
  7.79978167e-01  5.27971267e-01  6.41136924e+00  7.79978167e-01  5.27971267e-01
  6.41136924e+00  7.79978167e-01  5.27971267e-01  6.41136924e+00  7.79978167e-01
  5.27971267e-01  6.41136924e+00  7.79978167e-01  5.27971267e-01  6.41136924e+00
  7.79978167e-01  5.27971267e-01  6.41136924e+00  7.79978167e-01  5.27971267e-01
  6.41136924e+00  7.79978167e-01  3.15771372e+00  6.54905600e+00  9.04734404e-01
  3.15771372e+00  6.54905600e+00  9.04734404e-01  3.15771372e+00  6.54905600e+00
  9.04734404e-01  3.15771372e+00  6.54905600e+00  9.04734404e-01  3.15771372e+00
  6.54905600e+00  9.04734404e-01  3.15771372e+00  6.54905600e+00  9.04734404e-01
  3.15771372e+00  6.54905600e+00  9.04734404e-01  3.15771372e+00  6.54905600e+00
  9.04734404e-01  4.55978921e+00  4.31236002e+00  1.01040668e+00  4.55978921e+00
  4.31236002e+00  1.01040668e+00  4.55978921e+00  4.31236002e+00  1.01040668e+00
  4.55978921e+00  4.31236002e+00  1.01040668e+00  4.55978921e+00  4.31236002e+00
  1.01040668e+00  4.55978921e+00  4.31236002e+00  1.01040668e+00  4.55978921e+00
  4.31236002e+00  1.01040668e+00  4.55978921e+00  4.31236002e+00  1.01040668e+00
  6.61188581e+00  4.38178976e+00  1.08842550e+00  6.61188581e+00  4.38178976e+00
  1.08842550e+00 -2.73749813e+00  4.02948367e+00  6.40840295e-01 -2.73749813e+00
  4.02948367e+00  6.40840295e-01 -5.92364318e-01  8.13107035e+00  6.81643386e-01
 -5.92364318e-01  8.13107035e+00  6.81643386e-01  4.10513905e+00  8.37168024e+00
  9.11225405e-01  4.10513905e+00  8.37168024e+00  9.11225405e-01  1.89707702e+00
 -3.67120613e+00 -1.82677728e+00  1.89707702e+00 -3.67120613e+00 -1.82677728e+00