Generated by Psi4
     FORCE                           RHF                       TESTBAS
Number of atoms                            I               26
Charge                                     I                0
Multiplicity                               I                1
Number of electrons                        I               96
Number of alpha electrons                  I               48
Number of beta electrons                   I               48
Number of basis functions                  I              273
Number of independent functions            I              273
Atomic numbers                             I   N=          26
           7           6           6           7           6           6
           6           6           6           6           6           6
           1           1           1           1           1           1
           1           1           1           1           1           1
           1           9
Nuclear charges                            R   N=          26
  7.00000000e+00  6.00000000e+00  6.00000000e+00  7.00000000e+00  6.00000000e+00
  6.00000000e+00  6.00000000e+00  6.00000000e+00  6.00000000e+00  6.00000000e+00
  6.00000000e+00  6.00000000e+00  1.00000000e+00  1.00000000e+00  1.00000000e+00
  1.00000000e+00  1.00000000e+00  1.00000000e+00  1.00000000e+00  1.00000000e+00
  1.00000000e+00  1.00000000e+00  1.00000000e+00  1.00000000e+00  1.00000000e+00
  9.00000000e+00
Current cartesian coordinates              R   N=          78
 -7.17812708e+00 -8.57103589e-01  2.22455629e+00 -5.17287386e+00  1.32140388e-01
  3.87291459e+00 -2.52782780e+00 -8.75321644e-01  3.24456944e+00 -1.92203550e+00
 -3.20719253e-01  6.08032252e-01  2.61475013e+00 -8.04482143e-01  1.30668631e+00
  5.57679439e-01  4.34208144e-02 -1.76846480e-01  5.10764421e+00 -4.43536519e-01
  5.26142854e-01  5.57551762e+00  7.52656734e-01 -1.75984973e+00 -6.28764893e+00
 -1.61077566e+00 -2.98822914e-01 -4.04300321e+00  9.69526907e-03 -1.12639591e+00
  1.12461189e+00  1.26504529e+00 -2.48664934e+00  3.61730689e+00  1.60714428e+00
 -3.27895304e+00 -5.63513964e+00 -3.19530662e-01  5.83963474e+00 -5.13157678e+00
  2.20294500e+00  3.72761094e+00  2.27727229e+00 -1.79888696e+00  3.06635863e+00
 -3.80722144e-01  2.00223129e+00 -3.66489957e+00  6.67426069e+00 -1.10951035e+00
  1.67179866e+00 -3.46917025e+00 -6.07487146e-01 -3.01694122e+00 -4.62812526e+00
  2.00616075e+00 -1.27639363e+00 -7.82599262e+00 -1.37310817e+00 -1.66883129e+00
 -5.69434203e+00 -3.60829006e+00 -3.69294463e-01 -2.41839192e+00 -2.92004461e+00
  3.64741778e+00 -1.15013340e+00  6.76144373e-02  4.47393203e+00 -8.08462890e+00
 -2.32350125e+00  3.06637482e+00  4.03534074e+00  2.55579866e+00 -5.04970818e+00
  8.01718295e+00  1.09734476e+00 -2.53007076e+00
Integer atomic weights                     I   N=          26
          14          12          12          14          12          12
          12          12          12          12          12          12
           1           1           1           1           1           1
           1           1           1           1           1           1
           1          18
Real atomic weights                        R   N=          26
  1.40030740e+01  1.20000000e+01  1.20000000e+01  1.40030740e+01  1.20000000e+01
  1.20000000e+01  1.20000000e+01  1.20000000e+01  1.20000000e+01  1.20000000e+01
  1.20000000e+01  1.20000000e+01  1.00782503e+00  1.00782503e+00  1.00782503e+00
  1.00782503e+00  1.00782503e+00  1.00782503e+00  1.00782503e+00  1.00782503e+00
  1.00782503e+00  1.00782503e+00  1.00782503e+00  1.00782503e+00  1.00782503e+00
  1.89984032e+01
Number of primitive shells                 I              273
Number of contracted shells                I              130
Pure/Cartesian d shells                    I                1
Pure/Cartesian f shells                    I                1
Highest angular momentum                   I                2
Largest degree of contraction              I                6
Shell types                                I   N=         130
           0           0           1           0           1           2
           0           1           0           0           1           0
           1           2           0           1           0           0
           1           0           1           2           0           1
           0           0           1           0           1           2
           0           1           0           0           1           0
           1           2           0           1           0           0
           1           0           1           2           0           1
           0           0           1           0           1           2
           0           1           0           0           1           0
           1           2           0           1           0           0
           1           0           1           2           0           1
           0           0           1           0           1           2
           0           1           0           0           1           0
           1           2           0           1           0           0
           1           0           1           2           0           1
           0           0           0           0           0           0
           0           0           0           0           0           0
           0           0           0           0           0           0
           0           0           0           0           0           0
           0           0           0           0           1           0
           1           2           0           1
Number of primitives per shell             I   N=         130
           6           3           3           1           1           1
           1           1           6           3           3           1
           1           1           1           1           6           3
           3           1           1           1           1           1
           6           3           3           1           1           1
           1           1           6           3           3           1
           1           1           1           1           6           3
           3           1           1           1           1           1
           6           3           3           1           1           1
           1           1           6           3           3           1
           1           1           1           1           6           3
           3           1           1           1           1           1
           6           3           3           1           1           1
           1           1           6           3           3           1
           1           1           1           1           6           3
           3           1           1           1           1           1
           3           1           3           1           3           1
           3           1           3           1           3           1
           3           1           3           1           3           1
           3           1           3           1           3           1
           3           1           6           3           3           1
           1           1           1           1
Shell to atom map                          I   N=         130
           1           1           1           1           1           1
           1           1           2           2           2           2
           2           2           2           2           3           3
           3           3           3           3           3           3
           4           4           4           4           4           4
           4           4           5           5           5           5
           5           5           5           5           6           6
           6           6           6           6           6           6
           7           7           7           7           7           7
           7           7           8           8           8           8
           8           8           8           8           9           9
           9           9           9           9           9           9
          10          10          10          10          10          10
          10          10          11          11          11          11
          11          11          11          11          12          12
          12          12          12          12          12          12
          13          13          14          14          15          15
          16          16          17          17          18          18
          19          19          20          20          21          21
          22          22          23          23          24          24
          25          25          26          26          26          26
          26          26          26          26
Primitive exponents                        R   N=         273
  4.17351100e+03  6.27457900e+02  1.42902100e+02  4.02343300e+01  1.28202100e+01
  4.39043700e+00  1.16263580e+01  2.71628000e+00  7.72218000e-01  1.16263580e+01
  2.71628000e+00  7.72218000e-01  2.12031300e-01  2.12031300e-01  8.00000000e-01
  6.39000000e-02  6.39000000e-02  3.04752490e+03  4.57369510e+02  1.03948690e+02
  2.92101550e+01  9.28666300e+00  3.16392700e+00  7.86827240e+00  1.88128850e+00
  5.44249300e-01  7.86827240e+00  1.88128850e+00  5.44249300e-01  1.68714400e-01
  1.68714400e-01  8.00000000e-01  4.38000000e-02  4.38000000e-02  3.04752490e+03
  4.57369510e+02  1.03948690e+02  2.92101550e+01  9.28666300e+00  3.16392700e+00
  7.86827240e+00  1.88128850e+00  5.44249300e-01  7.86827240e+00  1.88128850e+00
  5.44249300e-01  1.68714400e-01  1.68714400e-01  8.00000000e-01  4.38000000e-02
  4.38000000e-02  4.17351100e+03  6.27457900e+02  1.42902100e+02  4.02343300e+01
  1.28202100e+01  4.39043700e+00  1.16263580e+01  2.71628000e+00  7.72218000e-01
  1.16263580e+01  2.71628000e+00  7.72218000e-01  2.12031300e-01  2.12031300e-01
  8.00000000e-01  6.39000000e-02  6.39000000e-02  3.04752490e+03  4.57369510e+02
  1.03948690e+02  2.92101550e+01  9.28666300e+00  3.16392700e+00  7.86827240e+00
  1.88128850e+00  5.44249300e-01  7.86827240e+00  1.88128850e+00  5.44249300e-01
  1.68714400e-01  1.68714400e-01  8.00000000e-01  4.38000000e-02  4.38000000e-02
  3.04752490e+03  4.57369510e+02  1.03948690e+02  2.92101550e+01  9.28666300e+00
  3.16392700e+00  7.86827240e+00  1.88128850e+00  5.44249300e-01  7.86827240e+00
  1.88128850e+00  5.44249300e-01  1.68714400e-01  1.68714400e-01  8.00000000e-01
  4.38000000e-02  4.38000000e-02  3.04752490e+03  4.57369510e+02  1.03948690e+02
  2.92101550e+01  9.28666300e+00  3.16392700e+00  7.86827240e+00  1.88128850e+00
  5.44249300e-01  7.86827240e+00  1.88128850e+00  5.44249300e-01  1.68714400e-01
  1.68714400e-01  8.00000000e-01  4.38000000e-02  4.38000000e-02  3.04752490e+03
  4.57369510e+02  1.03948690e+02  2.92101550e+01  9.28666300e+00  3.16392700e+00
  7.86827240e+00  1.88128850e+00  5.44249300e-01  7.86827240e+00  1.88128850e+00
  5.44249300e-01  1.68714400e-01  1.68714400e-01  8.00000000e-01  4.38000000e-02
  4.38000000e-02  3.04752490e+03  4.57369510e+02  1.03948690e+02  2.92101550e+01
  9.28666300e+00  3.16392700e+00  7.86827240e+00  1.88128850e+00  5.44249300e-01
  7.86827240e+00  1.88128850e+00  5.44249300e-01  1.68714400e-01  1.68714400e-01
  8.00000000e-01  4.38000000e-02  4.38000000e-02  3.04752490e+03  4.57369510e+02
  1.03948690e+02  2.92101550e+01  9.28666300e+00  3.16392700e+00  7.86827240e+00
  1.88128850e+00  5.44249300e-01  7.86827240e+00  1.88128850e+00  5.44249300e-01
  1.68714400e-01  1.68714400e-01  8.00000000e-01  4.38000000e-02  4.38000000e-02
  3.04752490e+03  4.57369510e+02  1.03948690e+02  2.92101550e+01  9.28666300e+00
  3.16392700e+00  7.86827240e+00  1.88128850e+00  5.44249300e-01  7.86827240e+00
  1.88128850e+00  5.44249300e-01  1.68714400e-01  1.68714400e-01  8.00000000e-01
  4.38000000e-02  4.38000000e-02  3.04752490e+03  4.57369510e+02  1.03948690e+02
  2.92101550e+01  9.28666300e+00  3.16392700e+00  7.86827240e+00  1.88128850e+00
  5.44249300e-01  7.86827240e+00  1.88128850e+00  5.44249300e-01  1.68714400e-01
  1.68714400e-01  8.00000000e-01  4.38000000e-02  4.38000000e-02  1.87311370e+01
  2.82539370e+00  6.40121700e-01  1.61277800e-01  1.87311370e+01  2.82539370e+00
  6.40121700e-01  1.61277800e-01  1.87311370e+01  2.82539370e+00  6.40121700e-01
  1.61277800e-01  1.87311370e+01  2.82539370e+00  6.40121700e-01  1.61277800e-01
  1.87311370e+01  2.82539370e+00  6.40121700e-01  1.61277800e-01  1.87311370e+01
  2.82539370e+00  6.40121700e-01  1.61277800e-01  1.87311370e+01  2.82539370e+00
  6.40121700e-01  1.61277800e-01  1.87311370e+01  2.82539370e+00  6.40121700e-01
  1.61277800e-01  1.87311370e+01  2.82539370e+00  6.40121700e-01  1.61277800e-01
  1.87311370e+01  2.82539370e+00  6.40121700e-01  1.61277800e-01  1.87311370e+01
  2.82539370e+00  6.40121700e-01  1.61277800e-01  1.87311370e+01  2.82539370e+00
  6.40121700e-01  1.61277800e-01  1.87311370e+01  2.82539370e+00  6.40121700e-01
  1.61277800e-01  7.00171309e+03  1.05136609e+03  2.39285690e+02  6.73974453e+01
  2.15199573e+01  7.40310130e+00  2.08479528e+01  4.80830834e+00  1.34406986e+00
  2.08479528e+01  4.80830834e+00  1.34406986e+00  3.58151393e-01  3.58151393e-01
  8.00000000e-01  1.07600000e-01  1.07600000e-01
Contraction coefficients                   R   N=         273
  1.83479944e-03  1.39949958e-02  6.85869792e-02  2.32240930e-01  4.69069858e-01
  3.60454891e-01 -1.14961023e-01 -1.69118034e-01  1.14585223e+00  6.75800232e-02
  3.23907111e-01  7.40895255e-01  1.00000000e+00  1.00000000e+00  1.00000000e+00
  1.00000000e+00  1.00000000e+00  1.83470016e-03  1.40373012e-02  6.88426061e-02
  2.32184421e-01  4.67941342e-01  3.62312032e-01 -1.19332409e-01 -1.60854212e-01
  1.14345648e+00  6.89990956e-02  3.16423980e-01  7.44308252e-01  1.00000000e+00
  1.00000000e+00  1.00000000e+00  1.00000000e+00  1.00000000e+00  1.83470016e-03
  1.40373012e-02  6.88426061e-02  2.32184421e-01  4.67941342e-01  3.62312032e-01
 -1.19332409e-01 -1.60854212e-01  1.14345648e+00  6.89990956e-02  3.16423980e-01
  7.44308252e-01  1.00000000e+00  1.00000000e+00  1.00000000e+00  1.00000000e+00
  1.00000000e+00  1.83479944e-03  1.39949958e-02  6.85869792e-02  2.32240930e-01
  4.69069858e-01  3.60454891e-01 -1.14961023e-01 -1.69118034e-01  1.14585223e+00
  6.75800232e-02  3.23907111e-01  7.40895255e-01  1.00000000e+00  1.00000000e+00
  1.00000000e+00  1.00000000e+00  1.00000000e+00  1.83470016e-03  1.40373012e-02
  6.88426061e-02  2.32184421e-01  4.67941342e-01  3.62312032e-01 -1.19332409e-01
 -1.60854212e-01  1.14345648e+00  6.89990956e-02  3.16423980e-01  7.44308252e-01
  1.00000000e+00  1.00000000e+00  1.00000000e+00  1.00000000e+00  1.00000000e+00
  1.83470016e-03  1.40373012e-02  6.88426061e-02  2.32184421e-01  4.67941342e-01
  3.62312032e-01 -1.19332409e-01 -1.60854212e-01  1.14345648e+00  6.89990956e-02
  3.16423980e-01  7.44308252e-01  1.00000000e+00  1.00000000e+00  1.00000000e+00
  1.00000000e+00  1.00000000e+00  1.83470016e-03  1.40373012e-02  6.88426061e-02
  2.32184421e-01  4.67941342e-01  3.62312032e-01 -1.19332409e-01 -1.60854212e-01
  1.14345648e+00  6.89990956e-02  3.16423980e-01  7.44308252e-01  1.00000000e+00
  1.00000000e+00  1.00000000e+00  1.00000000e+00  1.00000000e+00  1.83470016e-03
  1.40373012e-02  6.88426061e-02  2.32184421e-01  4.67941342e-01  3.62312032e-01
 -1.19332409e-01 -1.60854212e-01  1.14345648e+00  6.89990956e-02  3.16423980e-01
  7.44308252e-01  1.00000000e+00  1.00000000e+00  1.00000000e+00  1.00000000e+00
  1.00000000e+00  1.83470016e-03  1.40373012e-02  6.88426061e-02  2.32184421e-01
  4.67941342e-01  3.62312032e-01 -1.19332409e-01 -1.60854212e-01  1.14345648e+00
  6.89990956e-02  3.16423980e-01  7.44308252e-01  1.00000000e+00  1.00000000e+00
  1.00000000e+00  1.00000000e+00  1.00000000e+00  1.83470016e-03  1.40373012e-02
  6.88426061e-02  2.32184421e-01  4.67941342e-01  3.62312032e-01 -1.19332409e-01
 -1.60854212e-01  1.14345648e+00  6.89990956e-02  3.16423980e-01  7.44308252e-01
  1.00000000e+00  1.00000000e+00  1.00000000e+00  1.00000000e+00  1.00000000e+00
  1.83470016e-03  1.40373012e-02  6.88426061e-02  2.32184421e-01  4.67941342e-01
  3.62312032e-01 -1.19332409e-01 -1.60854212e-01  1.14345648e+00  6.89990956e-02
  3.16423980e-01  7.44308252e-01  1.00000000e+00  1.00000000e+00  1.00000000e+00
  1.00000000e+00  1.00000000e+00  1.83470016e-03  1.40373012e-02  6.88426061e-02
  2.32184421e-01  4.67941342e-01  3.62312032e-01 -1.19332409e-01 -1.60854212e-01
  1.14345648e+00  6.89990956e-02  3.16423980e-01  7.44308252e-01  1.00000000e+00
  1.00000000e+00  1.00000000e+00  1.00000000e+00  1.00000000e+00  3.34945995e-02
  2.34726947e-01  8.13757318e-01  1.00000000e+00  3.34945995e-02  2.34726947e-01
  8.13757318e-01  1.00000000e+00  3.34945995e-02  2.34726947e-01  8.13757318e-01
  1.00000000e+00  3.34945995e-02  2.34726947e-01  8.13757318e-01  1.00000000e+00
  3.34945995e-02  2.34726947e-01  8.13757318e-01  1.00000000e+00  3.34945995e-02
  2.34726947e-01  8.13757318e-01  1.00000000e+00  3.34945995e-02  2.34726947e-01
  8.13757318e-01  1.00000000e+00  3.34945995e-02  2.34726947e-01  8.13757318e-01
  1.00000000e+00  3.34945995e-02  2.34726947e-01  8.13757318e-01  1.00000000e+00
  3.34945995e-02  2.34726947e-01  8.13757318e-01  1.00000000e+00  3.34945995e-02
  2.34726947e-01  8.13757318e-01  1.00000000e+00  3.34945995e-02  2.34726947e-01
  8.13757318e-01  1.00000000e+00  3.34945995e-02  2.34726947e-01  8.13757318e-01
  1.00000000e+00  1.81961690e-03  1.39160796e-02  6.84053245e-02  2.33185760e-01
  4.71267439e-01  3.56618546e-01 -1.08506975e-01 -1.46451658e-01  1.12868858e+00
  7.16287242e-02  3.45912103e-01  7.22469956e-01  1.00000000e+00  1.00000000e+00
  1.00000000e+00  1.00000000e+00  1.00000000e+00
Coordinates of each shell                  R   N=         390
 -7.17812708e+00 -8.57103589e-01  2.22455629e+00 -7.17812708e+00 -8.57103589e-01
  2.22455629e+00 -7.17812708e+00 -8.57103589e-01  2.22455629e+00 -7.17812708e+00
 -8.57103589e-01  2.22455629e+00 -7.17812708e+00 -8.57103589e-01  2.22455629e+00
 -7.17812708e+00 -8.57103589e-01  2.22455629e+00 -7.17812708e+00 -8.57103589e-01
  2.22455629e+00 -7.17812708e+00 -8.57103589e-01  2.22455629e+00 -5.17287386e+00
  1.32140388e-01  3.87291459e+00 -5.17287386e+00  1.32140388e-01  3.87291459e+00
 -5.17287386e+00  1.32140388e-01  3.87291459e+00 -5.17287386e+00  1.32140388e-01
  3.87291459e+00 -5.17287386e+00  1.32140388e-01  3.87291459e+00 -5.17287386e+00
  1.32140388e-01  3.87291459e+00 -5.17287386e+00  1.32140388e-01  3.87291459e+00
 -5.17287386e+00  1.32140388e-01  3.87291459e+00 -2.52782780e+00 -8.75321644e-01
  3.24456944e+00 -2.52782780e+00 -8.75321644e-01  3.24456944e+00 -2.52782780e+00
 -8.75321644e-01  3.24456944e+00 -2.52782780e+00 -8.75321644e-01  3.24456944e+00
 -2.52782780e+00 -8.75321644e-01  3.24456944e+00 -2.52782780e+00 -8.75321644e-01
  3.24456944e+00 -2.52782780e+00 -8.75321644e-01  3.24456944e+00 -2.52782780e+00
 -8.75321644e-01  3.24456944e+00 -1.92203550e+00 -3.20719253e-01  6.08032252e-01
 -1.92203550e+00 -3.20719253e-01  6.08032252e-01 -1.92203550e+00 -3.20719253e-01
  6.08032252e-01 -1.92203550e+00 -3.20719253e-01  6.08032252e-01 -1.92203550e+00
 -3.20719253e-01  6.08032252e-01 -1.92203550e+00 -3.20719253e-01  6.08032252e-01
 -1.92203550e+00 -3.20719253e-01  6.08032252e-01 -1.92203550e+00 -3.20719253e-01
  6.08032252e-01  2.61475013e+00 -8.04482143e-01  1.30668631e+00  2.61475013e+00
 -8.04482143e-01  1.30668631e+00  2.61475013e+00 -8.04482143e-01  1.30668631e+00
  2.61475013e+00 -8.04482143e-01  1.30668631e+00  2.61475013e+00 -8.04482143e-01
  1.30668631e+00  2.61475013e+00 -8.04482143e-01  1.30668631e+00  2.61475013e+00
 -8.04482143e-01  1.30668631e+00  2.61475013e+00 -8.04482143e-01  1.30668631e+00
  5.57679439e-01  4.34208144e-02 -1.76846480e-01  5.57679439e-01  4.34208144e-02
 -1.76846480e-01  5.57679439e-01  4.34208144e-02 -1.76846480e-01  5.57679439e-01
  4.34208144e-02 -1.76846480e-01  5.57679439e-01  4.34208144e-02 -1.76846480e-01
  5.57679439e-01  4.34208144e-02 -1.76846480e-01  5.57679439e-01  4.34208144e-02
 -1.76846480e-01  5.57679439e-01  4.34208144e-02 -1.76846480e-01  5.10764421e+00
 -4.43536519e-01  5.26142854e-01  5.10764421e+00 -4.43536519e-01  5.26142854e-01
  5.10764421e+00 -4.43536519e-01  5.26142854e-01  5.10764421e+00 -4.43536519e-01
  5.26142854e-01  5.10764421e+00 -4.43536519e-01  5.26142854e-01  5.10764421e+00
 -4.43536519e-01  5.26142854e-01  5.10764421e+00 -4.43536519e-01  5.26142854e-01
  5.10764421e+00 -4.43536519e-01  5.26142854e-01  5.57551762e+00  7.52656734e-01
 -1.75984973e+00  5.57551762e+00  7.52656734e-01 -1.75984973e+00  5.57551762e+00
  7.52656734e-01 -1.75984973e+00  5.57551762e+00  7.52656734e-01 -1.75984973e+00
  5.57551762e+00  7.52656734e-01 -1.75984973e+00  5.57551762e+00  7.52656734e-01
 -1.75984973e+00  5.57551762e+00  7.52656734e-01 -1.75984973e+00  5.57551762e+00
  7.52656734e-01 -1.75984973e+00 -6.28764893e+00 -1.61077566e+00 -2.98822914e-01
 -6.28764893e+00 -1.61077566e+00 -2.98822914e-01 -6.28764893e+00 -1.61077566e+00
 -2.98822914e-01 -6.28764893e+00 -1.61077566e+00 -2.98822914e-01 -6.28764893e+00
 -1.61077566e+00 -2.98822914e-01 -6.28764893e+00 -1.61077566e+00 -2.98822914e-01
 -6.28764893e+00 -1.61077566e+00 -2.98822914e-01 -6.28764893e+00 -1.61077566e+00
 -2.98822914e-01 -4.04300321e+00  9.69526907e-03 -1.12639591e+00 -4.04300321e+00
  9.69526907e-03 -1.12639591e+00 -4.04300321e+00  9.69526907e-03 -1.12639591e+00
 -4.04300321e+00  9.69526907e-03 -1.12639591e+00 -4.04300321e+00  9.69526907e-03
 -1.12639591e+00 -4.04300321e+00  9.69526907e-03 -1.12639591e+00 -4.04300321e+00
  9.69526907e-03 -1.12639591e+00 -4.04300321e+00  9.69526907e-03 -1.12639591e+00
  1.12461189e+00  1.26504529e+00 -2.48664934e+00  1.12461189e+00  1.26504529e+00
 -2.48664934e+00  1.12461189e+00  1.26504529e+00 -2.48664934e+00  1.12461189e+00
  1.26504529e+00 -2.48664934e+00  1.12461189e+00  1.26504529e+00 -2.48664934e+00
  1.12461189e+00  1.26504529e+00 -2.48664934e+00  1.12461189e+00  1.26504529e+00
 -2.48664934e+00  1.12461189e+00  1.26504529e+00 -2.48664934e+00  3.61730689e+00
  1.60714428e+00 -3.27895304e+00  3.61730689e+00  1.60714428e+00 -3.27895304e+00
  3.61730689e+00  1.60714428e+00 -3.27895304e+00  3.61730689e+00  1.60714428e+00
 -3.27895304e+00  3.61730689e+00  1.60714428e+00 -3.27895304e+00  3.61730689e+00
  1.60714428e+00 -3.27895304e+00  3.61730689e+00  1.60714428e+00 -3.27895304e+00
  3.61730689e+00  1.60714428e+00 -3.27895304e+00 -5.63513964e+00 -3.19530662e-01
  5.83963474e+00 -5.63513964e+00 -3.19530662e-01  5.83963474e+00 -5.13157678e+00
  2.20294500e+00  3.72761094e+00 -5.13157678e+00  2.20294500e+00  3.72761094e+00
  2.27727229e+00 -1.79888696e+00  3.06635863e+00  2.27727229e+00 -1.79888696e+00
  3.06635863e+00 -3.80722144e-01  2.00223129e+00 -3.66489957e+00 -3.80722144e-01
  2.00223129e+00 -3.66489957e+00  6.67426069e+00 -1.10951035e+00  1.67179866e+00
  6.67426069e+00 -1.10951035e+00  1.67179866e+00 -3.46917025e+00 -6.07487146e-01
 -3.01694122e+00 -3.46917025e+00 -6.07487146e-01 -3.01694122e+00 -4.62812526e+00
  2.00616075e+00 -1.27639363e+00 -4.62812526e+00  2.00616075e+00 -1.27639363e+00
 -7.82599262e+00 -1.37310817e+00 -1.66883129e+00 -7.82599262e+00 -1.37310817e+00
 -1.66883129e+00 -5.69434203e+00 -3.60829006e+00 -3.69294463e-01 -5.69434203e+00
 -3.60829006e+00 -3.69294463e-01 -2.41839192e+00 -2.92004461e+00  3.64741778e+00
 -2.41839192e+00 -2.92004461e+00  3.64741778e+00 -1.15013340e+00  6.76144373e-02
  4.47393203e+00 -1.15013340e+00  6.76144373e-02  4.47393203e+00 -8.08462890e+00
 -2.32350125e+00  3.06637482e+00 -8.08462890e+00 -2.32350125e+00  3.06637482e+00
  4.03534074e+00  2.55579866e+00 -5.04970818e+00  4.03534074e+00  2.55579866e+00
 -5.04970818e+00  8.01718295e+00  1.09734476e+00 -2.53007076e+00  8.01718295e+00
  1.09734476e+00 -2.53007076e+00  8.01718295e+00  1.09734476e+00 -2.53007076e+00
  8.01718295e+00  1.09734476e+00 -2.53007076e+00  8.01718295e+00  1.09734476e+00
 -2.53007076e+00  8.01718295e+00  1.09734476e+00 -2.53007076e+00  8.01718295e+00
  1.09734476e+00 -2.53007076e+00  8.01718295e+00  1.09734476e+00 -2.53007076e+00
Total Energy                               R     -5.982304048401348e+02
Alpha Orbital Energies                     R   N=         273
 -2.47092581e+01 -1.43583087e+01 -1.43348571e+01 -1.02630012e+01 -1.02374223e+01
 -1.02316931e+01 -1.02303567e+01 -1.02250737e+01 -1.02248977e+01 -1.01994595e+01
 -1.01993474e+01 -1.01964783e+01 -1.01964538e+01 -1.21116645e+00 -9.64438891e-01
 -9.08643572e-01 -8.52673558e-01 -7.82419979e-01 -7.56516838e-01 -7.56026614e-01
 -6.88463937e-01 -6.71385234e-01 -6.18900485e-01 -6.09215921e-01 -5.62961411e-01
 -5.50997849e-01 -5.33231154e-01 -5.16726748e-01 -4.96147886e-01 -4.83199775e-01
 -4.56997213e-01 -4.54946553e-01 -4.52231480e-01 -4.35089695e-01 -4.34021030e-01
 -4.20878874e-01 -4.04693454e-01 -4.00649164e-01 -3.99641747e-01 -3.85219455e-01
 -3.76780002e-01 -3.63566120e-01 -3.54615433e-01 -3.43206103e-01 -2.84081375e-01
 -2.60712128e-01 -2.32138593e-01 -1.94962484e-01 -1.86177327e-02 -8.89826234e-03
  5.30172807e-03  9.11656280e-03  1.41980599e-02  1.75197938e-02  2.92302848e-02
  3.52116864e-02  3.68313552e-02  4.84379035e-02  5.26990994e-02  5.53777061e-02
  6.17196842e-02  6.67288730e-02  8.06117761e-02  8.21928829e-02  8.27334531e-02
  8.68060949e-02  9.65838761e-02  1.05051407e-01  1.11678180e-01  1.13644820e-01
  1.19194303e-01  1.27731948e-01  1.33814178e-01  1.44220694e-01  1.45518988e-01
  1.47670412e-01  1.49824451e-01  1.60601480e-01  1.64202378e-01  1.67912050e-01
  1.72654678e-01  1.76279027e-01  1.82799570e-01  1.85163229e-01  1.90434574e-01
  1.95242660e-01  2.02869075e-01  2.07353149e-01  2.11511307e-01  2.15766175e-01
  2.19060911e-01  2.25558848e-01  2.26944625e-01  2.29817222e-01  2.42730151e-01
  2.44063276e-01  2.46659893e-01  2.49514502e-01  2.52021063e-01  2.58366933e-01
  2.61270359e-01  2.64632174e-01  2.66113786e-01  2.75869655e-01  2.79547061e-01
  2.81179300e-01  2.88359111e-01  2.95142239e-01  3.08964298e-01  3.11103403e-01
  3.21669998e-01  3.22980307e-01  3.32078790e-01  3.44085817e-01  3.49170034e-01
  3.55187264e-01  3.69629081e-01  3.74959335e-01  3.79699619e-01  3.83741481e-01
  3.94034841e-01  3.95966107e-01  4.03574313e-01  4.13180696e-01  4.24260616e-01
  4.29125129e-01  4.56786327e-01  4.75253711e-01  5.78209796e-01  6.10170992e-01
  6.41437779e-01  6.62727997e-01  6.66167488e-01  6.71251499e-01  6.84925882e-01
  6.99495536e-01  7.02400222e-01  7.14167205e-01  7.16534994e-01  7.23686559e-01
  7.28183252e-01  7.49979230e-01  7.61464018e-01  7.62414859e-01  7.83001774e-01
  7.86820346e-01  8.06816934e-01  8.29568168e-01  8.37515935e-01  8.48115390e-01
  8.50836674e-01  8.78002738e-01  9.01834526e-01  9.11598162e-01  9.23745364e-01
  9.35872684e-01  9.46303524e-01  9.62201724e-01  9.81952978e-01  9.91587611e-01
  9.95752005e-01  1.01287468e+00  1.01889893e+00  1.02923932e+00  1.05506140e+00
  1.06479179e+00  1.07250424e+00  1.08193346e+00  1.09608763e+00  1.09983576e+00
  1.11265221e+00  1.12078396e+00  1.12151226e+00  1.13540257e+00  1.14241119e+00
  1.17325685e+00  1.21091219e+00  1.23788472e+00  1.24889132e+00  1.26792331e+00
  1.27220515e+00  1.29015457e+00  1.33781158e+00  1.34659298e+00  1.35962003e+00
  1.37072437e+00  1.41904457e+00  1.44242949e+00  1.45211030e+00  1.45939423e+00
  1.47444402e+00  1.50388293e+00  1.51729610e+00  1.56656484e+00  1.57903804e+00
  1.60603143e+00  1.64714825e+00  1.65472200e+00  1.68847377e+00  1.74307134e+00
  1.74324600e+00  1.77932503e+00  1.80282153e+00  1.81236891e+00  1.83212698e+00
  1.83643266e+00  1.84780649e+00  1.88955076e+00  1.89189862e+00  1.89481147e+00
  1.90342521e+00  1.90632103e+00  1.93776073e+00  1.95451558e+00  1.96478983e+00
  1.99897662e+00  2.00244614e+00  2.03354774e+00  2.04086286e+00  2.05788642e+00
  2.07929042e+00  2.10626405e+00  2.10866170e+00  2.13804843e+00  2.15688581e+00
  2.17083769e+00  2.20965105e+00  2.21980471e+00  2.24481795e+00  2.24905084e+00
  2.29321700e+00  2.31018894e+00  2.31490058e+00  2.32289639e+00  2.33374717e+00
  2.36345935e+00  2.37840145e+00  2.44357289e+00  2.49025661e+00  2.51316397e+00
  2.53379847e+00  2.55106051e+00  2.56290850e+00  2.58618852e+00  2.61697786e+00
  2.63848414e+00  2.65282914e+00  2.69083126e+00  2.72024643e+00  2.75195269e+00
  2.79010955e+00  2.80431613e+00  2.83533628e+00  2.84816007e+00  2.85797406e+00
  3.03773912e+00  3.05999670e+00  3.21776153e+00  3.23712000e+00  3.45885385e+00
  4.07638445e+00  4.22889443e+00  4.26119173e+00  4.29625870e+00  4.32597153e+00
  4.36480877e+00  4.40015344e+00  4.42906737e+00  4.47246839e+00  4.51736731e+00
  4.69681020e+00  4.77088864e+00  5.99126566e+00
Alpha MO coefficients                      R   N=       74529
 -1.70387958e-07  3.81213141e-07 -1.04299787e-06 -8.68031020e-07  8.20865605e-07
 -1.04885964e-05 -2.79737034e-06  6.67081501e-06 -3.37288245e-06 -9.76630072e-07
 -1.95361382e-06 -2.59227162e-07 -1.09239247e-06  8.61993054e-07 -1.64831982e-06
 -9.69585117e-05 -7.06652276e-05  4.58305989e-06  2.30735438e-05 -2.01967929e-07
 -1.53338454e-06  1.26521892e-06 -6.40243111e-07  2.00276654e-06 -8.69595332e-06
 -3.23010800e-05  1.43267826e-05 -2.15760286e-05 -9.96574790e-07 -3.41172401e-07
  1.46951851e-06  2.16884668e-06  9.21005446e-08  6.19205100e-07 -5.98255709e-04
 -7.60692237e-05  3.08808123e-05  1.10133262e-04  4.66045827e-07  5.51129218e-07
  2.67258557e-06 -1.49057240e-06  1.43111110e-06  1.16858798e-05 -6.53084681e-05
  4.95053280e-06  4.82916462e-06  2.62952816e-06  2.00730129e-07  7.50638351e-07
 -2.66379924e-06  4.47090158e-06  9.49792270e-07  1.32000222e-03 -1.65706220e-04
  1.14528078e-04 -2.70023090e-04 -1.01824101e-05 -4.79372876e-05 -2.40547090e-06
 -7.63286874e-07  9.90063032e-07  6.37873386e-04  2.59184439e-04  4.21073116e-05