Generated by Psi4
     FORCE                           RHF                       TESTBAS
Number of atoms                            I               26
Charge                                     I                0
Multiplicity                               I                1
Number of electrons                        I               82
Number of alpha electrons                  I               41
Number of beta electrons                   I               41
Number of basis functions                  I              239
Number of independent functions            I              239
Atomic numbers                             I   N=          26
           7           6           6           6           6           6
           6           1           1           1           1           1
           6           6           1           1           1           1
           6           1           1           1           6           1
           1           1
Nuclear charges                            R   N=          26
  7.00000000e+00  6.00000000e+00  6.00000000e+00  6.00000000e+00  6.00000000e+00
  6.00000000e+00  6.00000000e+00  1.00000000e+00  1.00000000e+00  1.00000000e+00
  1.00000000e+00  1.00000000e+00  6.00000000e+00  6.00000000e+00  1.00000000e+00
  1.00000000e+00  1.00000000e+00  1.00000000e+00  6.00000000e+00  1.00000000e+00
  1.00000000e+00  1.00000000e+00  6.00000000e+00  1.00000000e+00  1.00000000e+00
  1.00000000e+00
Current cartesian coordinates              R   N=          78
  1.84043948e-01 -4.54064887e+00  1.44367667e+00  4.09219461e-01  8.24416447e-01
 -1.08265816e+00 -1.32109862e+00 -3.58840865e-01 -2.71080915e+00 -3.17711805e+00
  1.03980509e+00 -3.96253604e+00 -3.34191754e+00  3.65491567e+00 -3.61730422e+00
 -1.62953394e+00  4.85888652e+00 -2.00955284e+00  2.24981048e-01  3.45021812e+00
 -7.61417892e-01 -1.22806324e+00 -2.39203300e+00 -2.96307790e+00 -4.49829552e+00
  8.34087228e-02 -5.21304476e+00 -4.78405953e+00  4.74153605e+00 -4.59756144e+00
 -1.72804342e+00  6.89244420e+00 -1.72984017e+00  1.55766774e+00  4.41011994e+00
  4.77414847e-01  2.45048322e+00 -6.52872650e-01  2.79475584e-01  1.59546731e+00
 -2.37698479e+00  2.51040464e+00  3.85228501e+00  6.85628558e-01  1.01644008e+00
  3.46437067e+00 -1.85706742e+00 -1.07824862e+00 -5.86285185e-01 -5.59489621e+00
  2.86134957e+00  1.38159199e+00 -5.70902289e+00  4.83961791e-01 -1.83989580e-01
 -9.69714110e-01  4.31913280e+00 -1.92905192e+00 -4.18364541e-01  3.35902346e+00
  7.18429104e-01  7.38212808e-01  5.06687098e+00 -6.78993510e-01 -2.17578331e+00
  5.93395589e+00  3.97834843e+00 -3.24527001e+00  3.95696425e+00  5.30289553e+00
 -4.21543433e+00  2.68725264e+00  3.46533070e+00 -4.56675078e+00  5.47087912e+00
  4.98222930e+00 -1.64739475e+00  4.81847815e+00
Integer atomic weights                     I   N=          26
          14          12          12          12          12          12
          12           1           1           1           1           1
          12          12           1           1           1           1
          12           1           1           1          12           1
           1           1
Real atomic weights                        R   N=          26
  1.40030740e+01  1.20000000e+01  1.20000000e+01  1.20000000e+01  1.20000000e+01
  1.20000000e+01  1.20000000e+01  1.00782503e+00  1.00782503e+00  1.00782503e+00
  1.00782503e+00  1.00782503e+00  1.20000000e+01  1.20000000e+01  1.00782503e+00
  1.00782503e+00  1.00782503e+00  1.00782503e+00  1.20000000e+01  1.00782503e+00
  1.00782503e+00  1.00782503e+00  1.20000000e+01  1.00782503e+00  1.00782503e+00
  1.00782503e+00
Number of primitive shells                 I              247
Number of contracted shells                I              118
Pure/Cartesian d shells                    I                1
Pure/Cartesian f shells                    I                1
Highest angular momentum                   I                2
Largest degree of contraction              I                6
Shell types                                I   N=         118
           0           0           1           0           1           2
           0           1           0           0           1           0
           1           2           0           1           0           0
           1           0           1           2           0           1
           0           0           1           0           1           2
           0           1           0           0           1           0
           1           2           0           1           0           0
           1           0           1           2           0           1
           0           0           1           0           1           2
           0           1           0           0           0           0
           0           0           0           0           0           0
           0           0           1           0           1           2
           0           1           0           0           1           0
           1           2           0           1           0           0
           0           0           0           0           0           0
           0           0           1           0           1           2
           0           1           0           0           0           0
           0           0           0           0           1           0
           1           2           0           1           0           0
           0           0           0           0
Number of primitives per shell             I   N=         118
           6           3           3           1           1           1
           1           1           6           3           3           1
           1           1           1           1           6           3
           3           1           1           1           1           1
           6           3           3           1           1           1
           1           1           6           3           3           1
           1           1           1           1           6           3
           3           1           1           1           1           1
           6           3           3           1           1           1
           1           1           3           1           3           1
           3           1           3           1           3           1
           6           3           3           1           1           1
           1           1           6           3           3           1
           1           1           1           1           3           1
           3           1           3           1           3           1
           6           3           3           1           1           1
           1           1           3           1           3           1
           3           1           6           3           3           1
           1           1           1           1           3           1
           3           1           3           1
Shell to atom map                          I   N=         118
           1           1           1           1           1           1
           1           1           2           2           2           2
           2           2           2           2           3           3
           3           3           3           3           3           3
           4           4           4           4           4           4
           4           4           5           5           5           5
           5           5           5           5           6           6
           6           6           6           6           6           6
           7           7           7           7           7           7
           7           7           8           8           9           9
          10          10          11          11          12          12
          13          13          13          13          13          13
          13          13          14          14          14          14
          14          14          14          14          15          15
          16          16          17          17          18          18
          19          19          19          19          19          19
          19          19          20          20          21          21
          22          22          23          23          23          23
          23          23          23          23          24          24
          25          25          26          26
Primitive exponents                        R   N=         247
  4.17351100e+03  6.27457900e+02  1.42902100e+02  4.02343300e+01  1.28202100e+01
  4.39043700e+00  1.16263580e+01  2.71628000e+00  7.72218000e-01  1.16263580e+01
  2.71628000e+00  7.72218000e-01  2.12031300e-01  2.12031300e-01  8.00000000e-01
  6.39000000e-02  6.39000000e-02  3.04752490e+03  4.57369510e+02  1.03948690e+02
  2.92101550e+01  9.28666300e+00  3.16392700e+00  7.86827240e+00  1.88128850e+00
  5.44249300e-01  7.86827240e+00  1.88128850e+00  5.44249300e-01  1.68714400e-01
  1.68714400e-01  8.00000000e-01  4.38000000e-02  4.38000000e-02  3.04752490e+03
  4.57369510e+02  1.03948690e+02  2.92101550e+01  9.28666300e+00  3.16392700e+00
  7.86827240e+00  1.88128850e+00  5.44249300e-01  7.86827240e+00  1.88128850e+00
  5.44249300e-01  1.68714400e-01  1.68714400e-01  8.00000000e-01  4.38000000e-02
  4.38000000e-02  3.04752490e+03  4.57369510e+02  1.03948690e+02  2.92101550e+01
  9.28666300e+00  3.16392700e+00  7.86827240e+00  1.88128850e+00  5.44249300e-01
  7.86827240e+00  1.88128850e+00  5.44249300e-01  1.68714400e-01  1.68714400e-01
  8.00000000e-01  4.38000000e-02  4.38000000e-02  3.04752490e+03  4.57369510e+02
  1.03948690e+02  2.92101550e+01  9.28666300e+00  3.16392700e+00  7.86827240e+00
  1.88128850e+00  5.44249300e-01  7.86827240e+00  1.88128850e+00  5.44249300e-01
  1.68714400e-01  1.68714400e-01  8.00000000e-01  4.38000000e-02  4.38000000e-02
  3.04752490e+03  4.57369510e+02  1.03948690e+02  2.92101550e+01  9.28666300e+00
  3.16392700e+00  7.86827240e+00  1.88128850e+00  5.44249300e-01  7.86827240e+00
  1.88128850e+00  5.44249300e-01  1.68714400e-01  1.68714400e-01  8.00000000e-01
  4.38000000e-02  4.38000000e-02  3.04752490e+03  4.57369510e+02  1.03948690e+02
  2.92101550e+01  9.28666300e+00  3.16392700e+00  7.86827240e+00  1.88128850e+00
  5.44249300e-01  7.86827240e+00  1.88128850e+00  5.44249300e-01  1.68714400e-01
  1.68714400e-01  8.00000000e-01  4.38000000e-02  4.38000000e-02  1.87311370e+01
  2.82539370e+00  6.40121700e-01  1.61277800e-01  1.87311370e+01  2.82539370e+00
  6.40121700e-01  1.61277800e-01  1.87311370e+01  2.82539370e+00  6.40121700e-01
  1.61277800e-01  1.87311370e+01  2.82539370e+00  6.40121700e-01  1.61277800e-01
  1.87311370e+01  2.82539370e+00  6.40121700e-01  1.61277800e-01  3.04752490e+03
  4.57369510e+02  1.03948690e+02  2.92101550e+01  9.28666300e+00  3.16392700e+00
  7.86827240e+00  1.88128850e+00  5.44249300e-01  7.86827240e+00  1.88128850e+00
  5.44249300e-01  1.68714400e-01  1.68714400e-01  8.00000000e-01  4.38000000e-02
  4.38000000e-02  3.04752490e+03  4.57369510e+02  1.03948690e+02  2.92101550e+01
  9.28666300e+00  3.16392700e+00  7.86827240e+00  1.88128850e+00  5.44249300e-01
  7.86827240e+00  1.88128850e+00  5.44249300e-01  1.68714400e-01  1.68714400e-01
  8.00000000e-01  4.38000000e-02  4.38000000e-02  1.87311370e+01  2.82539370e+00
  6.40121700e-01  1.61277800e-01  1.87311370e+01  2.82539370e+00  6.40121700e-01
  1.61277800e-01  1.87311370e+01  2.82539370e+00  6.40121700e-01  1.61277800e-01
  1.87311370e+01  2.82539370e+00  6.40121700e-01  1.61277800e-01  3.04752490e+03
  4.57369510e+02  1.03948690e+02  2.92101550e+01  9.28666300e+00  3.16392700e+00
  7.86827240e+00  1.88128850e+00  5.44249300e-01  7.86827240e+00  1.88128850e+00
  5.44249300e-01  1.68714400e-01  1.68714400e-01  8.00000000e-01  4.38000000e-02
  4.38000000e-02  1.87311370e+01  2.82539370e+00  6.40121700e-01  1.61277800e-01
  1.87311370e+01  2.82539370e+00  6.40121700e-01  1.61277800e-01  1.87311370e+01
  2.82539370e+00  6.40121700e-01  1.61277800e-01  3.04752490e+03  4.57369510e+02
  1.03948690e+02  2.92101550e+01  9.28666300e+00  3.16392700e+00  7.86827240e+00
  1.88128850e+00  5.44249300e-01  7.86827240e+00  1.88128850e+00  5.44249300e-01
  1.68714400e-01  1.68714400e-01  8.00000000e-01  4.38000000e-02  4.38000000e-02
  1.87311370e+01  2.82539370e+00  6.40121700e-01  1.61277800e-01  1.87311370e+01
  2.82539370e+00  6.40121700e-01  1.61277800e-01  1.87311370e+01  2.82539370e+00
  6.40121700e-01  1.61277800e-01
Contraction coefficients                   R   N=         247
  1.83479944e-03  1.39949958e-02  6.85869792e-02  2.32240930e-01  4.69069858e-01
  3.60454891e-01 -1.14961023e-01 -1.69118034e-01  1.14585223e+00  6.75800232e-02
  3.23907111e-01  7.40895255e-01  1.00000000e+00  1.00000000e+00  1.00000000e+00
  1.00000000e+00  1.00000000e+00  1.83470016e-03  1.40373012e-02  6.88426061e-02
  2.32184421e-01  4.67941342e-01  3.62312032e-01 -1.19332409e-01 -1.60854212e-01
  1.14345648e+00  6.89990956e-02  3.16423980e-01  7.44308252e-01  1.00000000e+00
  1.00000000e+00  1.00000000e+00  1.00000000e+00  1.00000000e+00  1.83470016e-03
  1.40373012e-02  6.88426061e-02  2.32184421e-01  4.67941342e-01  3.62312032e-01
 -1.19332409e-01 -1.60854212e-01  1.14345648e+00  6.89990956e-02  3.16423980e-01
  7.44308252e-01  1.00000000e+00  1.00000000e+00  1.00000000e+00  1.00000000e+00
  1.00000000e+00  1.83470016e-03  1.40373012e-02  6.88426061e-02  2.32184421e-01
  4.67941342e-01  3.62312032e-01 -1.19332409e-01 -1.60854212e-01  1.14345648e+00
  6.89990956e-02  3.16423980e-01  7.44308252e-01  1.00000000e+00  1.00000000e+00
  1.00000000e+00  1.00000000e+00  1.00000000e+00  1.83470016e-03  1.40373012e-02
  6.88426061e-02  2.32184421e-01  4.67941342e-01  3.62312032e-01 -1.19332409e-01
 -1.60854212e-01  1.14345648e+00  6.89990956e-02  3.16423980e-01  7.44308252e-01
  1.00000000e+00  1.00000000e+00  1.00000000e+00  1.00000000e+00  1.00000000e+00
  1.83470016e-03  1.40373012e-02  6.88426061e-02  2.32184421e-01  4.67941342e-01
  3.62312032e-01 -1.19332409e-01 -1.60854212e-01  1.14345648e+00  6.89990956e-02
  3.16423980e-01  7.44308252e-01  1.00000000e+00  1.00000000e+00  1.00000000e+00
  1.00000000e+00  1.00000000e+00  1.83470016e-03  1.40373012e-02  6.88426061e-02
  2.32184421e-01  4.67941342e-01  3.62312032e-01 -1.19332409e-01 -1.60854212e-01
  1.14345648e+00  6.89990956e-02  3.16423980e-01  7.44308252e-01  1.00000000e+00
  1.00000000e+00  1.00000000e+00  1.00000000e+00  1.00000000e+00  3.34945995e-02
  2.34726947e-01  8.13757318e-01  1.00000000e+00  3.34945995e-02  2.34726947e-01
  8.13757318e-01  1.00000000e+00  3.34945995e-02  2.34726947e-01  8.13757318e-01
  1.00000000e+00  3.34945995e-02  2.34726947e-01  8.13757318e-01  1.00000000e+00
  3.34945995e-02  2.34726947e-01  8.13757318e-01  1.00000000e+00  1.83470016e-03
  1.40373012e-02  6.88426061e-02  2.32184421e-01  4.67941342e-01  3.62312032e-01
 -1.19332409e-01 -1.60854212e-01  1.14345648e+00  6.89990956e-02  3.16423980e-01
  7.44308252e-01  1.00000000e+00  1.00000000e+00  1.00000000e+00  1.00000000e+00
  1.00000000e+00  1.83470016e-03  1.40373012e-02  6.88426061e-02  2.32184421e-01
  4.67941342e-01  3.62312032e-01 -1.19332409e-01 -1.60854212e-01  1.14345648e+00
  6.89990956e-02  3.16423980e-01  7.44308252e-01  1.00000000e+00  1.00000000e+00
  1.00000000e+00  1.00000000e+00  1.00000000e+00  3.34945995e-02  2.34726947e-01
  8.13757318e-01  1.00000000e+00  3.34945995e-02  2.34726947e-01  8.13757318e-01
  1.00000000e+00  3.34945995e-02  2.34726947e-01  8.13757318e-01  1.00000000e+00
  3.34945995e-02  2.34726947e-01  8.13757318e-01  1.00000000e+00  1.83470016e-03
  1.40373012e-02  6.88426061e-02  2.32184421e-01  4.67941342e-01  3.62312032e-01
 -1.19332409e-01 -1.60854212e-01  1.14345648e+00  6.89990956e-02  3.16423980e-01
  7.44308252e-01  1.00000000e+00  1.00000000e+00  1.00000000e+00  1.00000000e+00
  1.00000000e+00  3.34945995e-02  2.34726947e-01  8.13757318e-01  1.00000000e+00
  3.34945995e-02  2.34726947e-01  8.13757318e-01  1.00000000e+00  3.34945995e-02
  2.34726947e-01  8.13757318e-01  1.00000000e+00  1.83470016e-03  1.40373012e-02
  6.88426061e-02  2.32184421e-01  4.67941342e-01  3.62312032e-01 -1.19332409e-01
 -1.60854212e-01  1.14345648e+00  6.89990956e-02  3.16423980e-01  7.44308252e-01
  1.00000000e+00  1.00000000e+00  1.00000000e+00  1.00000000e+00  1.00000000e+00
  3.34945995e-02  2.34726947e-01  8.13757318e-01  1.00000000e+00  3.34945995e-02
  2.34726947e-01  8.13757318e-01  1.00000000e+00  3.34945995e-02  2.34726947e-01
  8.13757318e-01  1.00000000e+00
Coordinates of each shell                  R   N=         354
  1.84043948e-01 -4.54064887e+00  1.44367667e+00  1.84043948e-01 -4.54064887e+00
  1.44367667e+00  1.84043948e-01 -4.54064887e+00  1.44367667e+00  1.84043948e-01
 -4.54064887e+00  1.44367667e+00  1.84043948e-01 -4.54064887e+00  1.44367667e+00
  1.84043948e-01 -4.54064887e+00  1.44367667e+00  1.84043948e-01 -4.54064887e+00
  1.44367667e+00  1.84043948e-01 -4.54064887e+00  1.44367667e+00  4.09219461e-01
  8.24416447e-01 -1.08265816e+00  4.09219461e-01  8.24416447e-01 -1.08265816e+00
  4.09219461e-01  8.24416447e-01 -1.08265816e+00  4.09219461e-01  8.24416447e-01
 -1.08265816e+00  4.09219461e-01  8.24416447e-01 -1.08265816e+00  4.09219461e-01
  8.24416447e-01 -1.08265816e+00  4.09219461e-01  8.24416447e-01 -1.08265816e+00
  4.09219461e-01  8.24416447e-01 -1.08265816e+00 -1.32109862e+00 -3.58840865e-01
 -2.71080915e+00 -1.32109862e+00 -3.58840865e-01 -2.71080915e+00 -1.32109862e+00
 -3.58840865e-01 -2.71080915e+00 -1.32109862e+00 -3.58840865e-01 -2.71080915e+00
 -1.32109862e+00 -3.58840865e-01 -2.71080915e+00 -1.32109862e+00 -3.58840865e-01
 -2.71080915e+00 -1.32109862e+00 -3.58840865e-01 -2.71080915e+00 -1.32109862e+00
 -3.58840865e-01 -2.71080915e+00 -3.17711805e+00  1.03980509e+00 -3.96253604e+00
 -3.17711805e+00  1.03980509e+00 -3.96253604e+00 -3.17711805e+00  1.03980509e+00
 -3.96253604e+00 -3.17711805e+00  1.03980509e+00 -3.96253604e+00 -3.17711805e+00
  1.03980509e+00 -3.96253604e+00 -3.17711805e+00  1.03980509e+00 -3.96253604e+00
 -3.17711805e+00  1.03980509e+00 -3.96253604e+00 -3.17711805e+00  1.03980509e+00
 -3.96253604e+00 -3.34191754e+00  3.65491567e+00 -3.61730422e+00 -3.34191754e+00
  3.65491567e+00 -3.61730422e+00 -3.34191754e+00  3.65491567e+00 -3.61730422e+00
 -3.34191754e+00  3.65491567e+00 -3.61730422e+00 -3.34191754e+00  3.65491567e+00
 -3.61730422e+00 -3.34191754e+00  3.65491567e+00 -3.61730422e+00 -3.34191754e+00
  3.65491567e+00 -3.61730422e+00 -3.34191754e+00  3.65491567e+00 -3.61730422e+00
 -1.62953394e+00  4.85888652e+00 -2.00955284e+00 -1.62953394e+00  4.85888652e+00
 -2.00955284e+00 -1.62953394e+00  4.85888652e+00 -2.00955284e+00 -1.62953394e+00
  4.85888652e+00 -2.00955284e+00 -1.62953394e+00  4.85888652e+00 -2.00955284e+00
 -1.62953394e+00  4.85888652e+00 -2.00955284e+00 -1.62953394e+00  4.85888652e+00
 -2.00955284e+00 -1.62953394e+00  4.85888652e+00 -2.00955284e+00  2.24981048e-01
  3.45021812e+00 -7.61417892e-01  2.24981048e-01  3.45021812e+00 -7.61417892e-01
  2.24981048e-01  3.45021812e+00 -7.61417892e-01  2.24981048e-01  3.45021812e+00
 -7.61417892e-01  2.24981048e-01  3.45021812e+00 -7.61417892e-01  2.24981048e-01
  3.45021812e+00 -7.61417892e-01  2.24981048e-01  3.45021812e+00 -7.61417892e-01
  2.24981048e-01  3.45021812e+00 -7.61417892e-01 -1.22806324e+00 -2.39203300e+00
 -2.96307790e+00 -1.22806324e+00 -2.39203300e+00 -2.96307790e+00 -4.49829552e+00
  8.34087228e-02 -5.21304476e+00 -4.49829552e+00  8.34087228e-02 -5.21304476e+00
 -4.78405953e+00  4.74153605e+00 -4.59756144e+00 -4.78405953e+00  4.74153605e+00
 -4.59756144e+00 -1.72804342e+00  6.89244420e+00 -1.72984017e+00 -1.72804342e+00
  6.89244420e+00 -1.72984017e+00  1.55766774e+00  4.41011994e+00  4.77414847e-01
  1.55766774e+00  4.41011994e+00  4.77414847e-01  2.45048322e+00 -6.52872650e-01
  2.79475584e-01  2.45048322e+00 -6.52872650e-01  2.79475584e-01  2.45048322e+00
 -6.52872650e-01  2.79475584e-01  2.45048322e+00 -6.52872650e-01  2.79475584e-01
  2.45048322e+00 -6.52872650e-01  2.79475584e-01  2.45048322e+00 -6.52872650e-01
  2.79475584e-01  2.45048322e+00 -6.52872650e-01  2.79475584e-01  2.45048322e+00
 -6.52872650e-01  2.79475584e-01  1.59546731e+00 -2.37698479e+00  2.51040464e+00
  1.59546731e+00 -2.37698479e+00  2.51040464e+00  1.59546731e+00 -2.37698479e+00
  2.51040464e+00  1.59546731e+00 -2.37698479e+00  2.51040464e+00  1.59546731e+00
 -2.37698479e+00  2.51040464e+00  1.59546731e+00 -2.37698479e+00  2.51040464e+00
  1.59546731e+00 -2.37698479e+00  2.51040464e+00  1.59546731e+00 -2.37698479e+00
  2.51040464e+00  3.85228501e+00  6.85628558e-01  1.01644008e+00  3.85228501e+00
  6.85628558e-01  1.01644008e+00  3.46437067e+00 -1.85706742e+00 -1.07824862e+00
  3.46437067e+00 -1.85706742e+00 -1.07824862e+00 -5.86285185e-01 -5.59489621e+00
  2.86134957e+00 -5.86285185e-01 -5.59489621e+00  2.86134957e+00  1.38159199e+00
 -5.70902289e+00  4.83961791e-01  1.38159199e+00 -5.70902289e+00  4.83961791e-01
 -1.83989580e-01 -9.69714110e-01  4.31913280e+00 -1.83989580e-01 -9.69714110e-01
  4.31913280e+00 -1.83989580e-01 -9.69714110e-01  4.31913280e+00 -1.83989580e-01
 -9.69714110e-01  4.31913280e+00 -1.83989580e-01 -9.69714110e-01  4.31913280e+00
 -1.83989580e-01 -9.69714110e-01  4.31913280e+00 -1.83989580e-01 -9.69714110e-01
  4.31913280e+00 -1.83989580e-01 -9.69714110e-01  4.31913280e+00 -1.92905192e+00
 -4.18364541e-01  3.35902346e+00 -1.92905192e+00 -4.18364541e-01  3.35902346e+00
  7.18429104e-01  7.38212808e-01  5.06687098e+00  7.18429104e-01  7.38212808e-01
  5.06687098e+00 -6.78993510e-01 -2.17578331e+00  5.93395589e+00 -6.78993510e-01
 -2.17578331e+00  5.93395589e+00  3.97834843e+00 -3.24527001e+00  3.95696425e+00
  3.97834843e+00 -3.24527001e+00  3.95696425e+00  3.97834843e+00 -3.24527001e+00
  3.95696425e+00  3.97834843e+00 -3.24527001e+00  3.95696425e+00  3.97834843e+00
 -3.24527001e+00  3.95696425e+00  3.97834843e+00 -3.24527001e+00  3.95696425e+00
  3.97834843e+00 -3.24527001e+00  3.95696425e+00  3.97834843e+00 -3.24527001e+00
  3.95696425e+00  5.30289553e+00 -4.21543433e+00  2.68725264e+00  5.30289553e+00
 -4.21543433e+00  2.68725264e+00  3.46533070e+00 -4.56675078e+00  5.47087912e+00
  3.46533070e+00 -4.56675078e+00  5.47087912e+00  4.98222930e+00 -1.64739475e+00
  4.81847815e+00  4.98222930e+00 -1.64739475e+00  4.81847815e+00
Total Energy                               R     -4.448687921871672e+02
Alpha Orbital Energies                     R   N=         239
 -1.43226867e+01 -1.02308599e+01 -1.01943171e+01 -1.01896784e+01 -1.01892814e+01
 -1.01882359e+01 -1.01876235e+01 -1.01874007e+01 -1.01825522e+01 -1.01814021e+01
 -1.01761434e+01 -8.98405600e-01 -8.50387548e-01 -7.80701410e-01 -7.46766614e-01
 -7.39684801e-01 -6.92537678e-01 -6.80539498e-01 -6.01030959e-01 -5.88549606e-01
 -5.53759283e-01 -5.08303642e-01 -4.91545863e-01 -4.70813036e-01 -4.52919048e-01
 -4.43995592e-01 -4.43355505e-01 -4.21575254e-01 -4.15188661e-01 -3.97536708e-01
 -3.84241853e-01 -3.80802025e-01 -3.64770539e-01 -3.61682993e-01 -3.51701589e-01
 -3.34816100e-01 -3.32690764e-01 -3.29234280e-01 -2.50500805e-01 -2.41882983e-01
 -2.39140965e-01 -9.55547896e-03 -5.25432008e-03 -1.84830739e-03  1.32922660e-02
  2.24491776e-02  2.81276913e-02  3.37787795e-02  3.96579590e-02  4.31271978e-02
  5.17722519e-02  5.61203561e-02  6.18297845e-02  6.61895344e-02  7.46475154e-02
  7.96651242e-02  8.54873908e-02  9.01682475e-02  9.41548925e-02  9.70150110e-02
  1.11277258e-01  1.19328769e-01  1.24579171e-01  1.31544957e-01  1.36858776e-01
  1.39048726e-01  1.43735251e-01  1.50811879e-01  1.61841919e-01  1.66496390e-01
  1.69107996e-01  1.75067188e-01  1.81368788e-01  1.84625034e-01  1.86216120e-01
  1.90961780e-01  1.94936793e-01  2.02164689e-01  2.09833680e-01  2.10884675e-01
  2.15216141e-01  2.19937778e-01  2.21546523e-01  2.29988011e-01  2.35598838e-01
  2.40690016e-01  2.45022010e-01  2.48868111e-01  2.58642895e-01  2.63351847e-01
  2.67952986e-01  2.69668722e-01  2.76340784e-01  2.79770852e-01  2.89467042e-01
  2.92539447e-01  2.98711464e-01  3.04727467e-01  3.08480963e-01  3.11210300e-01
  3.28784606e-01  3.44091940e-01  3.49476520e-01  3.51907014e-01  3.62814459e-01
  3.66799770e-01  3.87569375e-01  3.91042556e-01  3.95027141e-01  4.09923205e-01
  4.23574245e-01  4.76278716e-01  5.81539616e-01  6.05005034e-01  6.46035921e-01
  6.75728617e-01  6.80383462e-01  6.83476292e-01  6.95012765e-01  7.01097151e-01
  7.17493655e-01  7.30907814e-01  7.32932558e-01  7.37032285e-01  7.41266829e-01
  7.46265011e-01  7.56344231e-01  7.65851354e-01  7.73548783e-01  7.88366861e-01
  7.97067851e-01  8.07945961e-01  8.23629789e-01  8.26022230e-01  8.76552694e-01
  8.83521643e-01  8.96711590e-01  9.12783908e-01  9.38000576e-01  9.49762650e-01
  9.58689052e-01  9.64252004e-01  9.82427275e-01  9.91591911e-01  1.00456148e+00
  1.01713402e+00  1.02396429e+00  1.03571026e+00  1.04226157e+00  1.05875212e+00
  1.06467682e+00  1.07480118e+00  1.09684228e+00  1.11565490e+00  1.12486016e+00
  1.13932647e+00  1.15768473e+00  1.16966545e+00  1.18032268e+00  1.18059999e+00
  1.20761515e+00  1.23361690e+00  1.25622366e+00  1.26523486e+00  1.28058941e+00
  1.29602612e+00  1.37956770e+00  1.41695744e+00  1.44864219e+00  1.45346373e+00
  1.47051192e+00  1.48941455e+00  1.49327981e+00  1.51804544e+00  1.53138849e+00
  1.53941432e+00  1.55540782e+00  1.59918830e+00  1.62904554e+00  1.73144750e+00
  1.79124603e+00  1.83066810e+00  1.83406766e+00  1.86288703e+00  1.86893103e+00
  1.88724708e+00  1.90093262e+00  1.92521409e+00  1.93144040e+00  1.97419798e+00
  1.97553676e+00  2.01058376e+00  2.06223783e+00  2.09034209e+00  2.11247938e+00
  2.11386829e+00  2.14823704e+00  2.15415720e+00  2.17132564e+00  2.19096894e+00
  2.19446723e+00  2.21313954e+00  2.23861668e+00  2.25558653e+00  2.26954775e+00
  2.29806710e+00  2.31037074e+00  2.31686581e+00  2.35893660e+00  2.38739840e+00
  2.41951235e+00  2.43406816e+00  2.45820098e+00  2.58756955e+00  2.61384689e+00
  2.62986302e+00  2.65326614e+00  2.66324259e+00  2.74490619e+00  2.75344222e+00
  2.76665591e+00  2.76799178e+00  2.79038772e+00  2.80831364e+00  2.85309243e+00
  2.97424204e+00  3.06966781e+00  3.40931028e+00  4.01019663e+00  4.23698397e+00
  4.25823682e+00  4.27602969e+00  4.34390392e+00  4.36240633e+00  4.39712589e+00
  4.41433055e+00  4.51234976e+00  4.70514554e+00  4.73206299e+00
Alpha MO coefficients                      R   N=       57121
  9.92656160e-01  3.46519983e-02  8.70186830e-04 -5.16875723e-04  7.38030945e-04
  4.04215358e-03 -9.52545521e-04  1.59923250e-04 -8.20116588e-04 -8.37795179e-03
 -8.38566302e-03 -8.34601443e-03 -8.09752521e-05 -5.41277321e-05 -6.29977437e-05
 -5.27983221e-03  4.65129527e-04 -1.21576806e-03  8.29152727e-04 -1.80734507e-06
 -2.46522357e-05 -3.25007050e-06 -1.23974465e-05  1.57958137e-05  8.40263630e-05
 -1.22473398e-04 -2.57032781e-05 -1.00275364e-04 -3.15424467e-06  2.07213739e-05
  2.36155072e-06  4.71633913e-06 -8.37269205e-06 -1.40108190e-06 -6.30529255e-03
  1.57435777e-03  4.81667155e-03  1.87358346e-04 -7.79038944e-07 -2.19876408e-05
 -8.55875899e-06 -1.53491965e-05  2.08802264e-05  4.63911462e-05 -3.66687761e-05
  2.80267945e-05 -7.50650546e-05  1.17137857e-05  3.17407269e-06  1.11037785e-05
 -1.16493296e-05  4.19900201e-06 -1.91929805e-05  2.55736531e-03  3.96564524e-03
 -1.56629248e-03  4.39929669e-03  2.45813117e-06  1.53616053e-05 -6.49492681e-07
  1.56743990e-06 -1.85623893e-06 -1.13109874e-04 -7.26437051e-05  2.99800477e-05
 -4.67355841e-05 -3.89928746e-06 -2.46512470e-07  2.72072713e-06  4.24243042e-06
 -7.72936346e-06  3.20630249e-06  6.34292255e-03  1.53284563e-03 -1.57576419e-03
  1.42010559e-04 -3.96444171e-07 -2.99106937e-06 -2.67136428e-07 -1.70552109e-06
  2.89027913e-07  3.40502616e-05  3.91667360e-05 -9.17729533e-06  2.31155520e-05
  8.79857878e-07 -1.51535673e-07 -3.28804325e-08 -3.04592717e-07 -1.42553321e-07
 -1.01708622e-06  5.18897926e-05 -5.52109368e-04 -5.98497681e-04 -6.39529265e-05
  1.74523124e-06  7.36962832e-06  2.87573206e-06 -1.75918215e-06  7.48727571e-07
 -6.28095840e-05 -1.50532287e-05  2.30716283e-05  2.47480591e-06  1.86168099e-06
  2.00820918e-06  2.90942841e-06  1.30602669e-06 -2.08056543e-06 -1.05932069e-06
  4.26977989e-04 -2.71885578e-04 -9.87289593e-07 -6.62405173e-04  5.15111293e-07
  5.93091562e-06 -2.61905267e-07  2.10059522e-06  1.25761929e-06  5.14248274e-05
  2.11885480e-05  3.02334476e-05  1.02735473e-05  2.85445212e-06 -8.45217493e-06
 -8.12155805e-08 -1.81210806e-06 -2.81371736e-06 -4.06020563e-06 -3.38495540e-03
 -6.78141059e-04  9.14272912e-04  5.32468645e-04  3.75504552e-05  2.46744281e-06
  1.33632225e-06 -8.98128541e-06  2.96414838e-06  1.22721440e-05  2.05383555e-06
 -1.18349739e-05  5.10912236e-06 -3.73095203e-05  3.55734091e-06  6.13879849e-05
  1.09484195e-05  2.74462900e-06  7.82264155e-06 -2.80826563e-05 -9.10702987e-05
  3.12243218e-04 -4.66168167e-05 -9.73990735e-06 -5.92142699e-05  1.42351012e-05
 -3.16377237e-05  1.29221229e-05  1.82032501e-05 -6.39171965e-03  1.00262094e-03
  3.60609014e-04 -7.01626367e-04 -3.85980179e-05 -1.07283472e-04 -1.38616042e-04
 -1.61407712e-04 -1.00663074e-04  1.11805471e-03 -6.33427940e-06 -6.58268938e-04
 -7.10509506e-05 -7.08720156e-06  9.40884589e-05 -3.74576649e-05  1.07160777e-04
  4.73709920e-05  7.54377204e-05  1.24857363e-02 -2.73431682e-03  2.47441255e-03
 -2.96459414e-03 -7.89556174e-06 -1.55201910e-05  4.85879012e-06  3.02368185e-04
  2.78308388e-04 -5.09993050e-05  2.48137214e-04  1.16509666e-04  5.63823929e-06
  7.74647373e-05  5.07223322e-06  1.94936115e-05  1.27689045e-05 -1.75662462e-04
 -8.32148902e-06  1.77250868e-04  1.33414574e-05  1.14852396e-05 -5.30968782e-05
 -1.82623391e-05  1.83474915e-05 -1.04713578e-05 -3.61211631e-05 -4.18812503e-03
 -3.37919110e-04  1.59375853e-04  9.56855132e-04  1.90910574e-05 -1.91302732e-08
  3.69689029e-06 -9.77328410e-05  2.31456810e-05  1.92675979e-05 -5.56790579e-06