Generated by Psi4
     FORCE                           RHF                       TESTBAS
Number of atoms                            I               20
Charge                                     I                0
Multiplicity                               I                1
Number of electrons                        I               66
Number of alpha electrons                  I               33
Number of beta electrons                   I               33
Number of basis functions                  I              193
Number of independent functions            I              193
Atomic numbers                             I   N=          20
           6           6           6           1           1           7
           6           6           6           6           6           1
           1           1           1           1           1           1
           1           1
Nuclear charges                            R   N=          20
  6.00000000e+00  6.00000000e+00  6.00000000e+00  1.00000000e+00  1.00000000e+00
  7.00000000e+00  6.00000000e+00  6.00000000e+00  6.00000000e+00  6.00000000e+00
  6.00000000e+00  1.00000000e+00  1.00000000e+00  1.00000000e+00  1.00000000e+00
  1.00000000e+00  1.00000000e+00  1.00000000e+00  1.00000000e+00  1.00000000e+00
Current cartesian coordinates              R   N=          60
  3.45813545e-01 -6.43833167e-01  3.47864159e-02 -1.48744766e+00 -1.70842896e+00
  1.95398656e+00 -3.59240678e+00  1.89047616e-01  2.69201121e+00 -4.66858481e-01
 -2.26692281e+00  3.67419089e+00 -2.37911976e+00 -3.42747497e+00  1.20395652e+00
 -5.43881846e+00 -7.11213786e-01  4.54399472e+00  2.50582956e+00  6.87188627e-01
  8.07013848e-01  4.15729886e+00  1.74627130e+00 -9.60489827e-01  3.67501956e+00
  1.49067081e+00 -3.54493300e+00  1.53246548e+00  1.67682814e-01 -4.34287401e+00
 -1.11837312e-01 -8.87127451e-01 -2.56624058e+00  2.90468059e+00  8.85959566e-01
  2.81538235e+00 -1.76863526e+00 -1.92475855e+00 -3.20694089e+00  5.82406981e+00
  2.76250623e+00 -3.19036109e-01  4.96032802e+00  2.30741974e+00 -4.92356410e+00
  1.14480755e+00 -5.16205170e-02 -6.34885201e+00 -4.58296835e+00 -1.19787567e+00
  6.19820707e+00 -6.35897955e+00 -2.27606238e+00  3.90344591e+00 -4.62736865e+00
  7.57382787e-01  9.88119647e-01 -2.72342638e+00  1.91267616e+00  3.44790680e+00
Integer atomic weights                     I   N=          20
          12          12          12           1           1          14
          12          12          12          12          12           1
           1           1           1           1           1           1
           1           1
Real atomic weights                        R   N=          20
  1.20000000e+01  1.20000000e+01  1.20000000e+01  1.00782503e+00  1.00782503e+00
  1.40030740e+01  1.20000000e+01  1.20000000e+01  1.20000000e+01  1.20000000e+01
  1.20000000e+01  1.00782503e+00  1.00782503e+00  1.00782503e+00  1.00782503e+00
  1.00782503e+00  1.00782503e+00  1.00782503e+00  1.00782503e+00  1.00782503e+00
Number of primitive shells                 I              197
Number of contracted shells                I               94
Pure/Cartesian d shells                    I                1
Pure/Cartesian f shells                    I                1
Highest angular momentum                   I                2
Largest degree of contraction              I                6
Shell types                                I   N=          94
           0           0           1           0           1           2
           0           1           0           0           1           0
           1           2           0           1           0           0
           1           0           1           2           0           1
           0           0           0           0           0           0
           1           0           1           2           0           1
           0           0           1           0           1           2
           0           1           0           0           1           0
           1           2           0           1           0           0
           1           0           1           2           0           1
           0           0           1           0           1           2
           0           1           0           0           1           0
           1           2           0           1           0           0
           0           0           0           0           0           0
           0           0           0           0           0           0
           0           0           0           0
Number of primitives per shell             I   N=          94
           6           3           3           1           1           1
           1           1           6           3           3           1
           1           1           1           1           6           3
           3           1           1           1           1           1
           3           1           3           1           6           3
           3           1           1           1           1           1
           6           3           3           1           1           1
           1           1           6           3           3           1
           1           1           1           1           6           3
           3           1           1           1           1           1
           6           3           3           1           1           1
           1           1           6           3           3           1
           1           1           1           1           3           1
           3           1           3           1           3           1
           3           1           3           1           3           1
           3           1           3           1
Shell to atom map                          I   N=          94
           1           1           1           1           1           1
           1           1           2           2           2           2
           2           2           2           2           3           3
           3           3           3           3           3           3
           4           4           5           5           6           6
           6           6           6           6           6           6
           7           7           7           7           7           7
           7           7           8           8           8           8
           8           8           8           8           9           9
           9           9           9           9           9           9
          10          10          10          10          10          10
          10          10          11          11          11          11
          11          11          11          11          12          12
          13          13          14          14          15          15
          16          16          17          17          18          18
          19          19          20          20
Primitive exponents                        R   N=         197
  3.04752490e+03  4.57369510e+02  1.03948690e+02  2.92101550e+01  9.28666300e+00
  3.16392700e+00  7.86827240e+00  1.88128850e+00  5.44249300e-01  7.86827240e+00
  1.88128850e+00  5.44249300e-01  1.68714400e-01  1.68714400e-01  8.00000000e-01
  4.38000000e-02  4.38000000e-02  3.04752490e+03  4.57369510e+02  1.03948690e+02
  2.92101550e+01  9.28666300e+00  3.16392700e+00  7.86827240e+00  1.88128850e+00
  5.44249300e-01  7.86827240e+00  1.88128850e+00  5.44249300e-01  1.68714400e-01
  1.68714400e-01  8.00000000e-01  4.38000000e-02  4.38000000e-02  3.04752490e+03
  4.57369510e+02  1.03948690e+02  2.92101550e+01  9.28666300e+00  3.16392700e+00
  7.86827240e+00  1.88128850e+00  5.44249300e-01  7.86827240e+00  1.88128850e+00
  5.44249300e-01  1.68714400e-01  1.68714400e-01  8.00000000e-01  4.38000000e-02
  4.38000000e-02  1.87311370e+01  2.82539370e+00  6.40121700e-01  1.61277800e-01
  1.87311370e+01  2.82539370e+00  6.40121700e-01  1.61277800e-01  4.17351100e+03
  6.27457900e+02  1.42902100e+02  4.02343300e+01  1.28202100e+01  4.39043700e+00
  1.16263580e+01  2.71628000e+00  7.72218000e-01  1.16263580e+01  2.71628000e+00
  7.72218000e-01  2.12031300e-01  2.12031300e-01  8.00000000e-01  6.39000000e-02
  6.39000000e-02  3.04752490e+03  4.57369510e+02  1.03948690e+02  2.92101550e+01
  9.28666300e+00  3.16392700e+00  7.86827240e+00  1.88128850e+00  5.44249300e-01
  7.86827240e+00  1.88128850e+00  5.44249300e-01  1.68714400e-01  1.68714400e-01
  8.00000000e-01  4.38000000e-02  4.38000000e-02  3.04752490e+03  4.57369510e+02
  1.03948690e+02  2.92101550e+01  9.28666300e+00  3.16392700e+00  7.86827240e+00
  1.88128850e+00  5.44249300e-01  7.86827240e+00  1.88128850e+00  5.44249300e-01
  1.68714400e-01  1.68714400e-01  8.00000000e-01  4.38000000e-02  4.38000000e-02
  3.04752490e+03  4.57369510e+02  1.03948690e+02  2.92101550e+01  9.28666300e+00
  3.16392700e+00  7.86827240e+00  1.88128850e+00  5.44249300e-01  7.86827240e+00
  1.88128850e+00  5.44249300e-01  1.68714400e-01  1.68714400e-01  8.00000000e-01
  4.38000000e-02  4.38000000e-02  3.04752490e+03  4.57369510e+02  1.03948690e+02
  2.92101550e+01  9.28666300e+00  3.16392700e+00  7.86827240e+00  1.88128850e+00
  5.44249300e-01  7.86827240e+00  1.88128850e+00  5.44249300e-01  1.68714400e-01
  1.68714400e-01  8.00000000e-01  4.38000000e-02  4.38000000e-02  3.04752490e+03
  4.57369510e+02  1.03948690e+02  2.92101550e+01  9.28666300e+00  3.16392700e+00
  7.86827240e+00  1.88128850e+00  5.44249300e-01  7.86827240e+00  1.88128850e+00
  5.44249300e-01  1.68714400e-01  1.68714400e-01  8.00000000e-01  4.38000000e-02
  4.38000000e-02  1.87311370e+01  2.82539370e+00  6.40121700e-01  1.61277800e-01
  1.87311370e+01  2.82539370e+00  6.40121700e-01  1.61277800e-01  1.87311370e+01
  2.82539370e+00  6.40121700e-01  1.61277800e-01  1.87311370e+01  2.82539370e+00
  6.40121700e-01  1.61277800e-01  1.87311370e+01  2.82539370e+00  6.40121700e-01
  1.61277800e-01  1.87311370e+01  2.82539370e+00  6.40121700e-01  1.61277800e-01
  1.87311370e+01  2.82539370e+00  6.40121700e-01  1.61277800e-01  1.87311370e+01
  2.82539370e+00  6.40121700e-01  1.61277800e-01  1.87311370e+01  2.82539370e+00
  6.40121700e-01  1.61277800e-01
Contraction coefficients                   R   N=         197
  1.83470016e-03  1.40373012e-02  6.88426061e-02  2.32184421e-01  4.67941342e-01
  3.62312032e-01 -1.19332409e-01 -1.60854212e-01  1.14345648e+00  6.89990956e-02
  3.16423980e-01  7.44308252e-01  1.00000000e+00  1.00000000e+00  1.00000000e+00
  1.00000000e+00  1.00000000e+00  1.83470016e-03  1.40373012e-02  6.88426061e-02
  2.32184421e-01  4.67941342e-01  3.62312032e-01 -1.19332409e-01 -1.60854212e-01
  1.14345648e+00  6.89990956e-02  3.16423980e-01  7.44308252e-01  1.00000000e+00
  1.00000000e+00  1.00000000e+00  1.00000000e+00  1.00000000e+00  1.83470016e-03
  1.40373012e-02  6.88426061e-02  2.32184421e-01  4.67941342e-01  3.62312032e-01
 -1.19332409e-01 -1.60854212e-01  1.14345648e+00  6.89990956e-02  3.16423980e-01
  7.44308252e-01  1.00000000e+00  1.00000000e+00  1.00000000e+00  1.00000000e+00
  1.00000000e+00  3.34945995e-02  2.34726947e-01  8.13757318e-01  1.00000000e+00
  3.34945995e-02  2.34726947e-01  8.13757318e-01  1.00000000e+00  1.83479944e-03
  1.39949958e-02  6.85869792e-02  2.32240930e-01  4.69069858e-01  3.60454891e-01
 -1.14961023e-01 -1.69118034e-01  1.14585223e+00  6.75800232e-02  3.23907111e-01
  7.40895255e-01  1.00000000e+00  1.00000000e+00  1.00000000e+00  1.00000000e+00
  1.00000000e+00  1.83470016e-03  1.40373012e-02  6.88426061e-02  2.32184421e-01
  4.67941342e-01  3.62312032e-01 -1.19332409e-01 -1.60854212e-01  1.14345648e+00
  6.89990956e-02  3.16423980e-01  7.44308252e-01  1.00000000e+00  1.00000000e+00
  1.00000000e+00  1.00000000e+00  1.00000000e+00  1.83470016e-03  1.40373012e-02
  6.88426061e-02  2.32184421e-01  4.67941342e-01  3.62312032e-01 -1.19332409e-01
 -1.60854212e-01  1.14345648e+00  6.89990956e-02  3.16423980e-01  7.44308252e-01
  1.00000000e+00  1.00000000e+00  1.00000000e+00  1.00000000e+00  1.00000000e+00
  1.83470016e-03  1.40373012e-02  6.88426061e-02  2.32184421e-01  4.67941342e-01
  3.62312032e-01 -1.19332409e-01 -1.60854212e-01  1.14345648e+00  6.89990956e-02
  3.16423980e-01  7.44308252e-01  1.00000000e+00  1.00000000e+00  1.00000000e+00
  1.00000000e+00  1.00000000e+00  1.83470016e-03  1.40373012e-02  6.88426061e-02
  2.32184421e-01  4.67941342e-01  3.62312032e-01 -1.19332409e-01 -1.60854212e-01
  1.14345648e+00  6.89990956e-02  3.16423980e-01  7.44308252e-01  1.00000000e+00
  1.00000000e+00  1.00000000e+00  1.00000000e+00  1.00000000e+00  1.83470016e-03
  1.40373012e-02  6.88426061e-02  2.32184421e-01  4.67941342e-01  3.62312032e-01
 -1.19332409e-01 -1.60854212e-01  1.14345648e+00  6.89990956e-02  3.16423980e-01
  7.44308252e-01  1.00000000e+00  1.00000000e+00  1.00000000e+00  1.00000000e+00
  1.00000000e+00  3.34945995e-02  2.34726947e-01  8.13757318e-01  1.00000000e+00
  3.34945995e-02  2.34726947e-01  8.13757318e-01  1.00000000e+00  3.34945995e-02
  2.34726947e-01  8.13757318e-01  1.00000000e+00  3.34945995e-02  2.34726947e-01
  8.13757318e-01  1.00000000e+00  3.34945995e-02  2.34726947e-01  8.13757318e-01
  1.00000000e+00  3.34945995e-02  2.34726947e-01  8.13757318e-01  1.00000000e+00
  3.34945995e-02  2.34726947e-01  8.13757318e-01  1.00000000e+00  3.34945995e-02
  2.34726947e-01  8.13757318e-01  1.00000000e+00  3.34945995e-02  2.34726947e-01
  8.13757318e-01  1.00000000e+00
Coordinates of each shell                  R   N=         282
  3.45813545e-01 -6.43833167e-01  3.47864159e-02  3.45813545e-01 -6.43833167e-01
  3.47864159e-02  3.45813545e-01 -6.43833167e-01  3.47864159e-02  3.45813545e-01
 -6.43833167e-01  3.47864159e-02  3.45813545e-01 -6.43833167e-01  3.47864159e-02
  3.45813545e-01 -6.43833167e-01  3.47864159e-02  3.45813545e-01 -6.43833167e-01
  3.47864159e-02  3.45813545e-01 -6.43833167e-01  3.47864159e-02 -1.48744766e+00
 -1.70842896e+00  1.95398656e+00 -1.48744766e+00 -1.70842896e+00  1.95398656e+00
 -1.48744766e+00 -1.70842896e+00  1.95398656e+00 -1.48744766e+00 -1.70842896e+00
  1.95398656e+00 -1.48744766e+00 -1.70842896e+00  1.95398656e+00 -1.48744766e+00
 -1.70842896e+00  1.95398656e+00 -1.48744766e+00 -1.70842896e+00  1.95398656e+00
 -1.48744766e+00 -1.70842896e+00  1.95398656e+00 -3.59240678e+00  1.89047616e-01
  2.69201121e+00 -3.59240678e+00  1.89047616e-01  2.69201121e+00 -3.59240678e+00
  1.89047616e-01  2.69201121e+00 -3.59240678e+00  1.89047616e-01  2.69201121e+00
 -3.59240678e+00  1.89047616e-01  2.69201121e+00 -3.59240678e+00  1.89047616e-01
  2.69201121e+00 -3.59240678e+00  1.89047616e-01  2.69201121e+00 -3.59240678e+00
  1.89047616e-01  2.69201121e+00 -4.66858481e-01 -2.26692281e+00  3.67419089e+00
 -4.66858481e-01 -2.26692281e+00  3.67419089e+00 -2.37911976e+00 -3.42747497e+00
  1.20395652e+00 -2.37911976e+00 -3.42747497e+00  1.20395652e+00 -5.43881846e+00
 -7.11213786e-01  4.54399472e+00 -5.43881846e+00 -7.11213786e-01  4.54399472e+00
 -5.43881846e+00 -7.11213786e-01  4.54399472e+00 -5.43881846e+00 -7.11213786e-01
  4.54399472e+00 -5.43881846e+00 -7.11213786e-01  4.54399472e+00 -5.43881846e+00
 -7.11213786e-01  4.54399472e+00 -5.43881846e+00 -7.11213786e-01  4.54399472e+00
 -5.43881846e+00 -7.11213786e-01  4.54399472e+00  2.50582956e+00  6.87188627e-01
  8.07013848e-01  2.50582956e+00  6.87188627e-01  8.07013848e-01  2.50582956e+00
  6.87188627e-01  8.07013848e-01  2.50582956e+00  6.87188627e-01  8.07013848e-01
  2.50582956e+00  6.87188627e-01  8.07013848e-01  2.50582956e+00  6.87188627e-01
  8.07013848e-01  2.50582956e+00  6.87188627e-01  8.07013848e-01  2.50582956e+00
  6.87188627e-01  8.07013848e-01  4.15729886e+00  1.74627130e+00 -9.60489827e-01
  4.15729886e+00  1.74627130e+00 -9.60489827e-01  4.15729886e+00  1.74627130e+00
 -9.60489827e-01  4.15729886e+00  1.74627130e+00 -9.60489827e-01  4.15729886e+00
  1.74627130e+00 -9.60489827e-01  4.15729886e+00  1.74627130e+00 -9.60489827e-01
  4.15729886e+00  1.74627130e+00 -9.60489827e-01  4.15729886e+00  1.74627130e+00
 -9.60489827e-01  3.67501956e+00  1.49067081e+00 -3.54493300e+00  3.67501956e+00
  1.49067081e+00 -3.54493300e+00  3.67501956e+00  1.49067081e+00 -3.54493300e+00
  3.67501956e+00  1.49067081e+00 -3.54493300e+00  3.67501956e+00  1.49067081e+00
 -3.54493300e+00  3.67501956e+00  1.49067081e+00 -3.54493300e+00  3.67501956e+00
  1.49067081e+00 -3.54493300e+00  3.67501956e+00  1.49067081e+00 -3.54493300e+00
  1.53246548e+00  1.67682814e-01 -4.34287401e+00  1.53246548e+00  1.67682814e-01
 -4.34287401e+00  1.53246548e+00  1.67682814e-01 -4.34287401e+00  1.53246548e+00
  1.67682814e-01 -4.34287401e+00  1.53246548e+00  1.67682814e-01 -4.34287401e+00
  1.53246548e+00  1.67682814e-01 -4.34287401e+00  1.53246548e+00  1.67682814e-01
 -4.34287401e+00  1.53246548e+00  1.67682814e-01 -4.34287401e+00 -1.11837312e-01
 -8.87127451e-01 -2.56624058e+00 -1.11837312e-01 -8.87127451e-01 -2.56624058e+00
 -1.11837312e-01 -8.87127451e-01 -2.56624058e+00 -1.11837312e-01 -8.87127451e-01
 -2.56624058e+00 -1.11837312e-01 -8.87127451e-01 -2.56624058e+00 -1.11837312e-01
 -8.87127451e-01 -2.56624058e+00 -1.11837312e-01 -8.87127451e-01 -2.56624058e+00
 -1.11837312e-01 -8.87127451e-01 -2.56624058e+00  2.90468059e+00  8.85959566e-01
  2.81538235e+00  2.90468059e+00  8.85959566e-01  2.81538235e+00 -1.76863526e+00
 -1.92475855e+00 -3.20694089e+00 -1.76863526e+00 -1.92475855e+00 -3.20694089e+00
  5.82406981e+00  2.76250623e+00 -3.19036109e-01  5.82406981e+00  2.76250623e+00
 -3.19036109e-01  4.96032802e+00  2.30741974e+00 -4.92356410e+00  4.96032802e+00
  2.30741974e+00 -4.92356410e+00  1.14480755e+00 -5.16205170e-02 -6.34885201e+00
  1.14480755e+00 -5.16205170e-02 -6.34885201e+00 -4.58296835e+00 -1.19787567e+00
  6.19820707e+00 -4.58296835e+00 -1.19787567e+00  6.19820707e+00 -6.35897955e+00
 -2.27606238e+00  3.90344591e+00 -6.35897955e+00 -2.27606238e+00  3.90344591e+00
 -4.62736865e+00  7.57382787e-01  9.88119647e-01 -4.62736865e+00  7.57382787e-01
  9.88119647e-01 -2.72342638e+00  1.91267616e+00  3.44790680e+00 -2.72342638e+00
  1.91267616e+00  3.44790680e+00
Total Energy                               R     -3.662379526897932e+02
Alpha Orbital Energies                     R   N=         193
 -1.43259043e+01 -1.02151510e+01 -1.02038932e+01 -1.01976023e+01 -1.01975161e+01
 -1.01958338e+01 -1.01955779e+01 -1.01955554e+01 -1.01938093e+01 -8.88834556e-01
 -8.59735655e-01 -7.81316798e-01 -7.49294804e-01 -7.09997083e-01 -6.29100734e-01
 -6.10383094e-01 -5.83935178e-01 -5.16148638e-01 -5.07379441e-01 -4.64453140e-01
 -4.62675862e-01 -4.44311830e-01 -4.25376432e-01 -4.17996162e-01 -4.07132759e-01
 -3.86662455e-01 -3.61759088e-01 -3.54694396e-01 -3.46232251e-01 -3.39627268e-01
 -2.59181370e-01 -2.56534069e-01 -2.35448718e-01 -1.55956140e-02 -1.45232223e-02
 -2.37237174e-03  8.12489870e-03  1.93456350e-02  3.01491122e-02  3.32666257e-02
  4.05853987e-02  4.88732337e-02  5.90895255e-02  6.84152599e-02  6.91536054e-02
  7.36596831e-02  9.02197430e-02  9.65305315e-02  1.00599728e-01  1.08047467e-01
  1.21186310e-01  1.21242997e-01  1.33446627e-01  1.44242698e-01  1.46289673e-01
  1.53413419e-01  1.57219457e-01  1.62540065e-01  1.68274150e-01  1.72023812e-01
  1.77594970e-01  1.89355311e-01  1.90731581e-01  1.92654045e-01  2.00908747e-01
  2.04619464e-01  2.07589361e-01  2.10902250e-01  2.21014152e-01  2.32711579e-01
  2.39980990e-01  2.52548692e-01  2.53760274e-01  2.55259298e-01  2.55601377e-01
  2.72930216e-01  2.77940227e-01  2.78119513e-01  2.91433426e-01  2.94288883e-01
  3.06463003e-01  3.06752147e-01  3.24133742e-01  3.48662943e-01  3.50264345e-01
  3.56320756e-01  3.66217936e-01  3.80103035e-01  3.81336962e-01  4.40782049e-01
  5.59994006e-01  5.98833613e-01  6.39361564e-01  6.58225149e-01  6.65820229e-01
  6.84706927e-01  6.97709767e-01  7.07024397e-01  7.18456712e-01  7.28784600e-01
  7.29974265e-01  7.40224331e-01  7.48473976e-01  7.56435484e-01  7.66305499e-01
  7.82923951e-01  7.95182196e-01  8.09175136e-01  8.63013061e-01  8.75871135e-01
  8.97958456e-01  9.23193339e-01  9.24352303e-01  9.31082762e-01  9.33619161e-01
  9.50662732e-01  9.66727566e-01  9.68938141e-01  1.01132077e+00  1.02065278e+00
  1.04288290e+00  1.05415441e+00  1.07944982e+00  1.08743723e+00  1.10662131e+00
  1.13029944e+00  1.14239098e+00  1.15480794e+00  1.16487194e+00  1.18449760e+00
  1.20516524e+00  1.25542845e+00  1.28221381e+00  1.28305193e+00  1.37210734e+00
  1.41578752e+00  1.43368551e+00  1.44055842e+00  1.45630002e+00  1.48143148e+00
  1.48905565e+00  1.50901808e+00  1.53569766e+00  1.58642381e+00  1.65190894e+00
  1.66513059e+00  1.80864530e+00  1.83500795e+00  1.84484522e+00  1.89468276e+00
  1.91971336e+00  1.94750036e+00  1.95452929e+00  1.98280940e+00  1.99632024e+00
  2.05737391e+00  2.07425541e+00  2.08011724e+00  2.10289673e+00  2.14161806e+00
  2.14562520e+00  2.17070788e+00  2.18144830e+00  2.21769410e+00  2.26213538e+00
  2.28043357e+00  2.30685884e+00  2.33202227e+00  2.40728140e+00  2.41342473e+00
  2.50595594e+00  2.52638365e+00  2.58542679e+00  2.60664071e+00  2.65270121e+00
  2.68931597e+00  2.74254010e+00  2.74858055e+00  2.75237028e+00  2.77693735e+00
  2.81302274e+00  2.95506569e+00  3.05240163e+00  3.39868983e+00  3.95589648e+00
  4.24031787e+00  4.24232300e+00  4.26080322e+00  4.30505524e+00  4.38363309e+00
  4.43760465e+00  4.53810825e+00  4.71337352e+00
Alpha MO coefficients                      R   N=       37249
 -1.20521570e-06  3.79294977e-06 -8.87659676e-06 -8.04866846e-06  1.06628418e-05
  6.20196587e-05  4.36672799e-04  2.73053030e-04 -4.66023606e-04 -1.04349816e-05
 -1.59695316e-06 -1.10146410e-05 -8.84871658e-06  1.93279484e-05  1.12317695e-05
  1.13169787e-03  2.77009543e-04 -5.48710127e-04  1.06117272e-04 -6.57196320e-06
 -8.84374582e-05 -4.12933582e-05  3.58767371e-06  3.02542593e-05  6.65644796e-04
  2.31079221e-04  1.97503738e-04 -2.71394244e-04  4.01733016e-05  4.26365921e-06
  2.99704277e-05  8.16869289e-06 -4.07840439e-05 -9.25865061e-06 -4.14377717e-03
 -9.01041176e-04 -7.39541971e-04  1.04189269e-03  1.75251500e-05 -3.62190402e-05
  1.73951593e-04  8.75448921e-05 -1.75746145e-04 -3.51108415e-04 -2.41460632e-05
  2.15968735e-04 -8.28889960e-05 -2.32911251e-05  1.91381580e-05 -2.65498745e-05
 -4.67229273e-05  1.05142950e-04  6.36447127e-05 -9.19095071e-04  1.31502386e-03
  1.47400021e-04 -1.08558159e-03 -2.06704651e-05  1.40489422e-04 -2.08183602e-05
  1.41833663e-04 -9.92662487e-01 -3.46169751e-02 -7.83375008e-04  9.12758923e-04
  1.77450192e-04 -4.29421402e-03  6.79565693e-04 -6.14574078e-04 -2.37214342e-04
  8.37222566e-03  8.29726339e-03  8.35309479e-03  1.81519279e-05 -7.80169156e-05
 -1.55600692e-05  3.32687547e-03 -4.73971810e-05  6.97813369e-04 -2.91689825e-04
  9.21158633e-07  9.95627419e-06  2.05269080e-06  1.12094734e-06 -3.43411681e-06
 -2.71366663e-04  5.00004242e-05  2.57813147e-05  3.04467139e-04 -9.85970948e-07
  1.17166087e-06 -7.99968422e-06 -4.60827079e-06 -6.31846996e-06 -4.95704949e-06
 -3.40477619e-03 -1.48059162e-03 -6.35075144e-04  1.09335365e-03 -1.63567839e-06
 -8.50446016e-06 -3.58710805e-06 -5.39013156e-06  2.30162196e-06  2.46490743e-04
 -1.00833728e-04 -4.95208808e-05 -1.15482587e-05  2.17928772e-07 -8.92667419e-07
 -2.03654678e-06 -4.52585507e-07 -9.90879989e-07 -1.04359986e-06  4.25057404e-03
 -5.56390383e-04 -5.47108533e-04  8.80848858e-04  5.25953823e-07  4.12428341e-06
 -2.76573038e-07 -1.69900543e-06  1.02100322e-06 -1.18267251e-04  5.49060574e-05
  3.47970640e-05 -5.89380690e-05 -3.72079676e-07  6.08122239e-07 -1.58806796e-06
 -1.72714856e-06 -9.27875567e-07 -2.31702510e-07  4.78696584e-05  9.49517292e-05
  2.38213222e-04 -2.05186617e-04 -1.64247224e-06 -8.54553705e-06 -1.05069595e-06
 -3.85838921e-06  5.60073523e-06  2.47073813e-04 -4.76222591e-06  8.23068159e-06
  1.12836733e-04 -1.60872226e-06 -4.35899999e-07 -6.65540807e-07 -6.27530170e-07
 -1.75685508e-06 -1.08707460e-07  4.27588046e-03 -7.52527756e-04 -6.65589252e-04
  6.75704912e-04  9.08055816e-07  9.91218359e-06  3.21988267e-06  1.82700760e-06
 -2.01155687e-06 -2.71076648e-04 -2.53544421e-04 -1.56817991e-04 -8.53802471e-05
 -4.45658486e-06  1.91923832e-06 -5.35514742e-06 -5.06559955e-06 -7.66097313e-06
 -3.26299323e-06 -3.33577385e-03 -1.19568267e-03 -4.65913724e-04  1.54145947e-03
 -8.90828807e-06 -1.25749121e-04 -8.96519097e-06 -1.25995116e-04  1.89726590e-06
  1.17248689e-05 -1.58995781e-06 -3.20312842e-05  1.89530963e-06  1.17851090e-05
 -2.61619850e-04  9.90424172e-05 -2.61588848e-04  9.88683711e-05  2.53968460e-05
 -8.64564317e-05  2.54589939e-05 -8.67572045e-05 -1.97176003e-04 -1.70253460e-04
  1.19481037e-04 -8.72054007e-06 -8.83776009e-05  1.19954746e-03  2.48267132e-04
  1.15835213e-04 -2.47100445e-04 -6.74309330e-05 -3.08292971e-05 -6.05896609e-05
 -3.31201668e-06  5.47401211e-06 -1.53764170e-05  2.82025076e-02  4.09323232e-03
  3.99045165e-03 -5.32434821e-03  4.31279807e-03 -1.28141482e-04  1.06955318e-05
 -1.25765855e-04  5.12204882e-05  5.22419595e-03 -2.20571383e-03  1.92197387e-03
  8.01078804e-04 -2.77655816e-04 -3.00199991e-04 -1.93630218e-04  1.13432360e-04
  3.47001044e-05 -2.23063530e-05  2.17129228e-02  1.51200246e-03  4.02484715e-03
 -3.05272214e-03  9.93134380e-01  5.01531515e-02 -1.88048448e-04 -1.97542514e-04
  2.38234010e-04 -2.17472319e-02 -8.21280474e-04  1.39755268e-03 -1.91926031e-05
 -8.78871942e-03 -8.78928841e-03 -8.68880601e-03  1.17759830e-04  7.33303214e-05
 -1.28995546e-05 -1.24117369e-02 -1.65118365e-03  1.26476665e-03  6.80475865e-04
 -1.09044459e-04 -8.32730654e-04 -1.08299512e-04 -8.41604044e-04 -1.10141831e-04
 -1.35719881e-04 -1.10963925e-04 -5.21932657e-05  1.10376584e-04  3.17277546e-03
  1.13688910e-03  1.65462636e-04 -9.57730806e-04 -2.20165213e-04 -1.42545742e-04
 -2.18969343e-04 -9.51740568e-05  2.62785754e-04  1.63927021e-04  5.37050161e-03
  1.22160321e-03 -3.77576899e-05 -9.25580367e-04  7.48360459e-05  1.14675325e-04
 -6.87627856e-05 -2.45318384e-05  1.31564635e-05 -5.88980166e-04  9.79524258e-04
  4.71330809e-04 -1.13063659e-04  1.73670547e-05  6.64658219e-05  4.67445715e-05
 -2.14442971e-06 -1.95419216e-05 -2.10782057e-05 -2.31096421e-02  5.42612909e-03
  2.51409859e-03  3.03993529e-03  3.20041570e-05  5.11499884e-05  1.22316990e-05
  6.80767977e-06  9.93961790e-07 -5.93151650e-04  7.49017881e-05  8.48886387e-05
 -3.94085350e-04  9.57345767e-06  1.09917542e-05 -6.01880124e-06 -1.13401446e-05
  1.29005210e-05  1.00416399e-05  1.51385699e-02 -2.83047515e-03 -1.16419406e-03
 -3.38827903e-03  1.44121863e-05  1.49958116e-05  2.33321158e-06  7.49059018e-06
 -5.44760438e-06 -3.72077440e-04 -2.64289068e-05 -5.22459248e-05  4.48169591e-05
  3.63761810e-06  7.84106650e-06  4.14626507e-06 -3.64524411e-07 -3.54245830e-07
 -2.37485833e-06 -2.33252351e-02  2.59960386e-03  1.15817631e-03 -2.44658971e-03
  3.22549489e-05  5.15436048e-05  6.18499966e-07  7.27939756e-09 -1.39785635e-05
 -5.98310982e-04  3.28683843e-04  2.36471718e-04 -7.11910712e-05  5.93205536e-07
  1.02305535e-05  4.00158039e-06 -1.54219327e-05  1.07304806e-05  1.14374458e-05
  1.50418382e-02  2.55772132e-03  2.07827801e-03  3.30763805e-03  7.43295224e-05
  1.14671225e-04 -2.46326110e-05  1.28253567e-06  6.97143157e-05 -5.87007794e-04
  2.43366597e-04  3.06610156e-05 -1.06803987e-03  4.41129135e-05  6.17732169e-05
  2.39380979e-05  2.90805643e-06 -9.43561154e-06 -3.26898912e-05 -2.33910830e-02
 -1.68725126e-03 -1.75242274e-03 -6.50894645e-03  6.27994512e-05 -9.54751235e-05
  6.32901225e-05 -9.51147455e-05  4.72610533e-05 -8.87292703e-05  4.51650372e-06
  1.69499394e-04  4.72669626e-05 -8.95395816e-05 -8.14444893e-05 -4.60421816e-04
 -8.15729112e-05 -4.59793046e-04  4.52787623e-05  3.23752307e-03  4.54820102e-05
  3.23632044e-03  9.91941079e-01  5.03262062e-02 -3.43930278e-05  7.78507896e-05
 -9.93929566e-06 -2.27708284e-02 -1.02663136e-03 -9.38748863e-04  1.23664022e-03
 -8.81602274e-03 -8.95192663e-03 -8.72475995e-03  1.42089011e-04  9.28180101e-05
  5.87449072e-05  9.88510818e-02  4.26868277e-03  3.99632723e-03 -5.17162597e-03
  1.21239448e-02  6.47903264e-04 -7.81566904e-05 -3.55643938e-05  7.72700881e-05
  2.06363619e-03  1.00221216e-03  1.54440850e-05 -7.83843346e-04 -2.97625923e-04
 -1.90103943e-04 -3.12331238e-04 -1.05654046e-04  1.89585372e-04  1.08717098e-04
 -2.64640473e-03 -5.41951952e-03  1.84251318e-03  3.33433875e-03  6.25101067e-05
 -1.66259156e-04 -8.83521597e-05 -1.50368724e-05  7.52840843e-05  3.39351436e-04
  4.07988367e-04  3.35584690e-04 -4.72121101e-04 -5.21139028e-05 -8.14913260e-05
 -7.72530921e-05 -2.03887025e-05 -1.90123159e-05  1.44676640e-05 -1.21449345e-02
 -3.18730033e-03  1.32542438e-03  1.83905946e-03 -2.87643181e-05 -9.20904312e-04
 -2.93345845e-05 -9.19820287e-04 -2.77420090e-05 -9.75592521e-05  1.02229400e-06
 -2.61231207e-06  4.26612979e-07  7.02207779e-04  1.22348478e-04  1.49097026e-05
 -1.01734481e-04 -4.70722479e-05 -7.48056242e-05 -4.47006524e-05  1.69485978e-05
 -1.90526976e-05 -4.75122010e-06 -2.93661444e-04  3.70247805e-04  1.82021273e-04
 -3.70094952e-04  3.17228450e-02  1.26696701e-03  1.89375812e-04  1.44882624e-04
  1.24847979e-04  5.95866021e-03 -1.80131605e-03 -1.12198388e-03 -2.43872609e-03
 -5.87788848e-04 -4.62257814e-04 -3.69040577e-04 -1.64406814e-04 -9.42971662e-05
 -6.53096862e-05 -5.11504900e-02  7.90530266e-03  4.41254655e-03  7.54756630e-03
  1.39457346e-03  1.53242351e-04  8.95782556e-06  1.20281025e-05 -3.81246991e-05
 -3.11654996e-03  1.68774777e-03  1.01436210e-03  1.10715439e-03  4.52803431e-05
  2.42537369e-05 -3.78110084e-06  2.38074821e-05 -3.04380098e-06 -2.11278132e-07
  2.39082408e-02 -3.82120540e-03 -2.26218331e-03 -3.34679783e-03 -4.38628356e-04
 -3.09923769e-04  1.88593482e-05  1.42629464e-05 -2.12902979e-05  3.95101340e-03
 -1.34962216e-03 -8.68496817e-04  1.45295676e-03 -3.79362532e-05 -8.50151589e-05
 -4.20994150e-06  5.76745173e-05  1.19092354e-05  3.95794671e-06 -2.65495361e-02
  2.67318286e-03  1.62637868e-03 -2.82984391e-03  1.39523069e-03  1.53389019e-04