Generated by Psi4
     FORCE                           RHF                       TESTBAS
Number of atoms                            I               18
Charge                                     I                0
Multiplicity                               I                1
Number of electrons                        I               72
Number of alpha electrons                  I               36
Number of beta electrons                   I               36
Number of basis functions                  I              206
Number of independent functions            I              206
Atomic numbers                             I   N=          18
           6           6           6           8           1           1
           8           1           6           6           6           6
           6           1           1           1           1           1
Nuclear charges                            R   N=          18
  6.00000000e+00  6.00000000e+00  6.00000000e+00  8.00000000e+00  1.00000000e+00
  1.00000000e+00  8.00000000e+00  1.00000000e+00  6.00000000e+00  6.00000000e+00
  6.00000000e+00  6.00000000e+00  6.00000000e+00  1.00000000e+00  1.00000000e+00
  1.00000000e+00  1.00000000e+00  1.00000000e+00
Current cartesian coordinates              R   N=          54
 -6.08871828e-01 -1.89480975e-01  9.30428425e-01  2.80530031e-01  2.51395211e+00
  1.15369770e+00  1.90544477e+00  3.42495720e+00 -1.06585528e+00  2.71244860e+00
  5.87099518e+00 -8.63003339e-01  1.39073075e+00  2.76721519e+00  2.89161177e+00
 -1.34538485e+00  3.79785515e+00  1.31135232e+00  2.48793415e+00  2.19073040e+00
 -2.88362549e+00  2.10502409e+00  6.63780409e+00  6.92230838e-01 -2.90590840e+00
 -7.58241462e-01 -2.55041599e-01 -3.72093261e+00 -3.25819945e+00 -4.83846666e-01
 -2.24466470e+00 -5.22481000e+00  4.79117205e-01  4.80975496e-02 -4.67548590e+00
  1.66913171e+00  8.55528709e-01 -2.17277086e+00  1.89357324e+00  2.64675100e+00
 -1.76076644e+00  2.81556925e+00 -4.06209856e+00  7.62169711e-01 -1.01656387e+00
 -5.50674081e+00 -3.66777492e+00 -1.41252816e+00 -2.87694437e+00 -7.17126193e+00
  3.04677040e-01  1.20869534e+00 -6.19312291e+00  2.42352473e+00
Integer atomic weights                     I   N=          18
          12          12          12          15           1           1
          15           1          12          12          12          12
          12           1           1           1           1           1
Real atomic weights                        R   N=          18
  1.20000000e+01  1.20000000e+01  1.20000000e+01  1.59949146e+01  1.00782503e+00
  1.00782503e+00  1.59949146e+01  1.00782503e+00  1.20000000e+01  1.20000000e+01
  1.20000000e+01  1.20000000e+01  1.20000000e+01  1.00782503e+00  1.00782503e+00
  1.00782503e+00  1.00782503e+00  1.00782503e+00
Number of primitive shells                 I              202
Number of contracted shells                I               96
Pure/Cartesian d shells                    I                1
Pure/Cartesian f shells                    I                1
Highest angular momentum                   I                2
Largest degree of contraction              I                6
Shell types                                I   N=          96
           0           0           1           0           1           2
           0           1           0           0           1           0
           1           2           0           1           0           0
           1           0           1           2           0           1
           0           0           1           0           1           2
           0           1           0           0           0           0
           0           0           1           0           1           2
           0           1           0           0           0           0
           1           0           1           2           0           1
           0           0           1           0           1           2
           0           1           0           0           1           0
           1           2           0           1           0           0
           1           0           1           2           0           1
           0           0           1           0           1           2
           0           1           0           0           0           0
           0           0           0           0           0           0
Number of primitives per shell             I   N=          96
           6           3           3           1           1           1
           1           1           6           3           3           1
           1           1           1           1           6           3
           3           1           1           1           1           1
           6           3           3           1           1           1
           1           1           3           1           3           1
           6           3           3           1           1           1
           1           1           3           1           6           3
           3           1           1           1           1           1
           6           3           3           1           1           1
           1           1           6           3           3           1
           1           1           1           1           6           3
           3           1           1           1           1           1
           6           3           3           1           1           1
           1           1           3           1           3           1
           3           1           3           1           3           1
Shell to atom map                          I   N=          96
           1           1           1           1           1           1
           1           1           2           2           2           2
           2           2           2           2           3           3
           3           3           3           3           3           3
           4           4           4           4           4           4
           4           4           5           5           6           6
           7           7           7           7           7           7
           7           7           8           8           9           9
           9           9           9           9           9           9
          10          10          10          10          10          10
          10          10          11          11          11          11
          11          11          11          11          12          12
          12          12          12          12          12          12
          13          13          13          13          13          13
          13          13          14          14          15          15
          16          16          17          17          18          18
Primitive exponents                        R   N=         202
  3.04752490e+03  4.57369510e+02  1.03948690e+02  2.92101550e+01  9.28666300e+00
  3.16392700e+00  7.86827240e+00  1.88128850e+00  5.44249300e-01  7.86827240e+00
  1.88128850e+00  5.44249300e-01  1.68714400e-01  1.68714400e-01  8.00000000e-01
  4.38000000e-02  4.38000000e-02  3.04752490e+03  4.57369510e+02  1.03948690e+02
  2.92101550e+01  9.28666300e+00  3.16392700e+00  7.86827240e+00  1.88128850e+00
  5.44249300e-01  7.86827240e+00  1.88128850e+00  5.44249300e-01  1.68714400e-01
  1.68714400e-01  8.00000000e-01  4.38000000e-02  4.38000000e-02  3.04752490e+03
  4.57369510e+02  1.03948690e+02  2.92101550e+01  9.28666300e+00  3.16392700e+00
  7.86827240e+00  1.88128850e+00  5.44249300e-01  7.86827240e+00  1.88128850e+00
  5.44249300e-01  1.68714400e-01  1.68714400e-01  8.00000000e-01  4.38000000e-02
  4.38000000e-02  5.48467170e+03  8.25234950e+02  1.88046960e+02  5.29645000e+01
  1.68975700e+01  5.79963530e+00  1.55396160e+01  3.59993360e+00  1.01376180e+00
  1.55396160e+01  3.59993360e+00  1.01376180e+00  2.70005800e-01  2.70005800e-01
  8.00000000e-01  8.45000000e-02  8.45000000e-02  1.87311370e+01  2.82539370e+00
  6.40121700e-01  1.61277800e-01  1.87311370e+01  2.82539370e+00  6.40121700e-01
  1.61277800e-01  5.48467170e+03  8.25234950e+02  1.88046960e+02  5.29645000e+01
  1.68975700e+01  5.79963530e+00  1.55396160e+01  3.59993360e+00  1.01376180e+00
  1.55396160e+01  3.59993360e+00  1.01376180e+00  2.70005800e-01  2.70005800e-01
  8.00000000e-01  8.45000000e-02  8.45000000e-02  1.87311370e+01  2.82539370e+00
  6.40121700e-01  1.61277800e-01  3.04752490e+03  4.57369510e+02  1.03948690e+02
  2.92101550e+01  9.28666300e+00  3.16392700e+00  7.86827240e+00  1.88128850e+00
  5.44249300e-01  7.86827240e+00  1.88128850e+00  5.44249300e-01  1.68714400e-01
  1.68714400e-01  8.00000000e-01  4.38000000e-02  4.38000000e-02  3.04752490e+03
  4.57369510e+02  1.03948690e+02  2.92101550e+01  9.28666300e+00  3.16392700e+00
  7.86827240e+00  1.88128850e+00  5.44249300e-01  7.86827240e+00  1.88128850e+00
  5.44249300e-01  1.68714400e-01  1.68714400e-01  8.00000000e-01  4.38000000e-02
  4.38000000e-02  3.04752490e+03  4.57369510e+02  1.03948690e+02  2.92101550e+01
  9.28666300e+00  3.16392700e+00  7.86827240e+00  1.88128850e+00  5.44249300e-01
  7.86827240e+00  1.88128850e+00  5.44249300e-01  1.68714400e-01  1.68714400e-01
  8.00000000e-01  4.38000000e-02  4.38000000e-02  3.04752490e+03  4.57369510e+02
  1.03948690e+02  2.92101550e+01  9.28666300e+00  3.16392700e+00  7.86827240e+00
  1.88128850e+00  5.44249300e-01  7.86827240e+00  1.88128850e+00  5.44249300e-01
  1.68714400e-01  1.68714400e-01  8.00000000e-01  4.38000000e-02  4.38000000e-02
  3.04752490e+03  4.57369510e+02  1.03948690e+02  2.92101550e+01  9.28666300e+00
  3.16392700e+00  7.86827240e+00  1.88128850e+00  5.44249300e-01  7.86827240e+00
  1.88128850e+00  5.44249300e-01  1.68714400e-01  1.68714400e-01  8.00000000e-01
  4.38000000e-02  4.38000000e-02  1.87311370e+01  2.82539370e+00  6.40121700e-01
  1.61277800e-01  1.87311370e+01  2.82539370e+00  6.40121700e-01  1.61277800e-01
  1.87311370e+01  2.82539370e+00  6.40121700e-01  1.61277800e-01  1.87311370e+01
  2.82539370e+00  6.40121700e-01  1.61277800e-01  1.87311370e+01  2.82539370e+00
  6.40121700e-01  1.61277800e-01
Contraction coefficients                   R   N=         202
  1.83470016e-03  1.40373012e-02  6.88426061e-02  2.32184421e-01  4.67941342e-01
  3.62312032e-01 -1.19332409e-01 -1.60854212e-01  1.14345648e+00  6.89990956e-02
  3.16423980e-01  7.44308252e-01  1.00000000e+00  1.00000000e+00  1.00000000e+00
  1.00000000e+00  1.00000000e+00  1.83470016e-03  1.40373012e-02  6.88426061e-02
  2.32184421e-01  4.67941342e-01  3.62312032e-01 -1.19332409e-01 -1.60854212e-01
  1.14345648e+00  6.89990956e-02  3.16423980e-01  7.44308252e-01  1.00000000e+00
  1.00000000e+00  1.00000000e+00  1.00000000e+00  1.00000000e+00  1.83470016e-03
  1.40373012e-02  6.88426061e-02  2.32184421e-01  4.67941342e-01  3.62312032e-01
 -1.19332409e-01 -1.60854212e-01  1.14345648e+00  6.89990956e-02  3.16423980e-01
  7.44308252e-01  1.00000000e+00  1.00000000e+00  1.00000000e+00  1.00000000e+00
  1.00000000e+00  1.83109981e-03  1.39500985e-02  6.84450927e-02  2.32714275e-01
  4.70192950e-01  3.58520862e-01 -1.10777504e-01 -1.48026305e-01  1.13076704e+00
  7.08742995e-02  3.39752798e-01  7.27158595e-01  1.00000000e+00  1.00000000e+00
  1.00000000e+00  1.00000000e+00  1.00000000e+00  3.34945995e-02  2.34726947e-01
  8.13757318e-01  1.00000000e+00  3.34945995e-02  2.34726947e-01  8.13757318e-01
  1.00000000e+00  1.83109981e-03  1.39500985e-02  6.84450927e-02  2.32714275e-01
  4.70192950e-01  3.58520862e-01 -1.10777504e-01 -1.48026305e-01  1.13076704e+00
  7.08742995e-02  3.39752798e-01  7.27158595e-01  1.00000000e+00  1.00000000e+00
  1.00000000e+00  1.00000000e+00  1.00000000e+00  3.34945995e-02  2.34726947e-01
  8.13757318e-01  1.00000000e+00  1.83470016e-03  1.40373012e-02  6.88426061e-02
  2.32184421e-01  4.67941342e-01  3.62312032e-01 -1.19332409e-01 -1.60854212e-01
  1.14345648e+00  6.89990956e-02  3.16423980e-01  7.44308252e-01  1.00000000e+00
  1.00000000e+00  1.00000000e+00  1.00000000e+00  1.00000000e+00  1.83470016e-03
  1.40373012e-02  6.88426061e-02  2.32184421e-01  4.67941342e-01  3.62312032e-01
 -1.19332409e-01 -1.60854212e-01  1.14345648e+00  6.89990956e-02  3.16423980e-01
  7.44308252e-01  1.00000000e+00  1.00000000e+00  1.00000000e+00  1.00000000e+00
  1.00000000e+00  1.83470016e-03  1.40373012e-02  6.88426061e-02  2.32184421e-01
  4.67941342e-01  3.62312032e-01 -1.19332409e-01 -1.60854212e-01  1.14345648e+00
  6.89990956e-02  3.16423980e-01  7.44308252e-01  1.00000000e+00  1.00000000e+00
  1.00000000e+00  1.00000000e+00  1.00000000e+00  1.83470016e-03  1.40373012e-02
  6.88426061e-02  2.32184421e-01  4.67941342e-01  3.62312032e-01 -1.19332409e-01
 -1.60854212e-01  1.14345648e+00  6.89990956e-02  3.16423980e-01  7.44308252e-01
  1.00000000e+00  1.00000000e+00  1.00000000e+00  1.00000000e+00  1.00000000e+00
  1.83470016e-03  1.40373012e-02  6.88426061e-02  2.32184421e-01  4.67941342e-01
  3.62312032e-01 -1.19332409e-01 -1.60854212e-01  1.14345648e+00  6.89990956e-02
  3.16423980e-01  7.44308252e-01  1.00000000e+00  1.00000000e+00  1.00000000e+00
  1.00000000e+00  1.00000000e+00  3.34945995e-02  2.34726947e-01  8.13757318e-01
  1.00000000e+00  3.34945995e-02  2.34726947e-01  8.13757318e-01  1.00000000e+00
  3.34945995e-02  2.34726947e-01  8.13757318e-01  1.00000000e+00  3.34945995e-02
  2.34726947e-01  8.13757318e-01  1.00000000e+00  3.34945995e-02  2.34726947e-01
  8.13757318e-01  1.00000000e+00
Coordinates of each shell                  R   N=         288
 -6.08871828e-01 -1.89480975e-01  9.30428425e-01 -6.08871828e-01 -1.89480975e-01
  9.30428425e-01 -6.08871828e-01 -1.89480975e-01  9.30428425e-01 -6.08871828e-01
 -1.89480975e-01  9.30428425e-01 -6.08871828e-01 -1.89480975e-01  9.30428425e-01
 -6.08871828e-01 -1.89480975e-01  9.30428425e-01 -6.08871828e-01 -1.89480975e-01
  9.30428425e-01 -6.08871828e-01 -1.89480975e-01  9.30428425e-01  2.80530031e-01
  2.51395211e+00  1.15369770e+00  2.80530031e-01  2.51395211e+00  1.15369770e+00
  2.80530031e-01  2.51395211e+00  1.15369770e+00  2.80530031e-01  2.51395211e+00
  1.15369770e+00  2.80530031e-01  2.51395211e+00  1.15369770e+00  2.80530031e-01
  2.51395211e+00  1.15369770e+00  2.80530031e-01  2.51395211e+00  1.15369770e+00
  2.80530031e-01  2.51395211e+00  1.15369770e+00  1.90544477e+00  3.42495720e+00
 -1.06585528e+00  1.90544477e+00  3.42495720e+00 -1.06585528e+00  1.90544477e+00
  3.42495720e+00 -1.06585528e+00  1.90544477e+00  3.42495720e+00 -1.06585528e+00
  1.90544477e+00  3.42495720e+00 -1.06585528e+00  1.90544477e+00  3.42495720e+00
 -1.06585528e+00  1.90544477e+00  3.42495720e+00 -1.06585528e+00  1.90544477e+00
  3.42495720e+00 -1.06585528e+00  2.71244860e+00  5.87099518e+00 -8.63003339e-01
  2.71244860e+00  5.87099518e+00 -8.63003339e-01  2.71244860e+00  5.87099518e+00
 -8.63003339e-01  2.71244860e+00  5.87099518e+00 -8.63003339e-01  2.71244860e+00
  5.87099518e+00 -8.63003339e-01  2.71244860e+00  5.87099518e+00 -8.63003339e-01
  2.71244860e+00  5.87099518e+00 -8.63003339e-01  2.71244860e+00  5.87099518e+00
 -8.63003339e-01  1.39073075e+00  2.76721519e+00  2.89161177e+00  1.39073075e+00
  2.76721519e+00  2.89161177e+00 -1.34538485e+00  3.79785515e+00  1.31135232e+00
 -1.34538485e+00  3.79785515e+00  1.31135232e+00  2.48793415e+00  2.19073040e+00
 -2.88362549e+00  2.48793415e+00  2.19073040e+00 -2.88362549e+00  2.48793415e+00
  2.19073040e+00 -2.88362549e+00  2.48793415e+00  2.19073040e+00 -2.88362549e+00
  2.48793415e+00  2.19073040e+00 -2.88362549e+00  2.48793415e+00  2.19073040e+00
 -2.88362549e+00  2.48793415e+00  2.19073040e+00 -2.88362549e+00  2.48793415e+00
  2.19073040e+00 -2.88362549e+00  2.10502409e+00  6.63780409e+00  6.92230838e-01
  2.10502409e+00  6.63780409e+00  6.92230838e-01 -2.90590840e+00 -7.58241462e-01
 -2.55041599e-01 -2.90590840e+00 -7.58241462e-01 -2.55041599e-01 -2.90590840e+00
 -7.58241462e-01 -2.55041599e-01 -2.90590840e+00 -7.58241462e-01 -2.55041599e-01
 -2.90590840e+00 -7.58241462e-01 -2.55041599e-01 -2.90590840e+00 -7.58241462e-01
 -2.55041599e-01 -2.90590840e+00 -7.58241462e-01 -2.55041599e-01 -2.90590840e+00
 -7.58241462e-01 -2.55041599e-01 -3.72093261e+00 -3.25819945e+00 -4.83846666e-01
 -3.72093261e+00 -3.25819945e+00 -4.83846666e-01 -3.72093261e+00 -3.25819945e+00
 -4.83846666e-01 -3.72093261e+00 -3.25819945e+00 -4.83846666e-01 -3.72093261e+00
 -3.25819945e+00 -4.83846666e-01 -3.72093261e+00 -3.25819945e+00 -4.83846666e-01
 -3.72093261e+00 -3.25819945e+00 -4.83846666e-01 -3.72093261e+00 -3.25819945e+00
 -4.83846666e-01 -2.24466470e+00 -5.22481000e+00  4.79117205e-01 -2.24466470e+00
 -5.22481000e+00  4.79117205e-01 -2.24466470e+00 -5.22481000e+00  4.79117205e-01
 -2.24466470e+00 -5.22481000e+00  4.79117205e-01 -2.24466470e+00 -5.22481000e+00
  4.79117205e-01 -2.24466470e+00 -5.22481000e+00  4.79117205e-01 -2.24466470e+00
 -5.22481000e+00  4.79117205e-01 -2.24466470e+00 -5.22481000e+00  4.79117205e-01
  4.80975496e-02 -4.67548590e+00  1.66913171e+00  4.80975496e-02 -4.67548590e+00
  1.66913171e+00  4.80975496e-02 -4.67548590e+00  1.66913171e+00  4.80975496e-02
 -4.67548590e+00  1.66913171e+00  4.80975496e-02 -4.67548590e+00  1.66913171e+00
  4.80975496e-02 -4.67548590e+00  1.66913171e+00  4.80975496e-02 -4.67548590e+00
  1.66913171e+00  4.80975496e-02 -4.67548590e+00  1.66913171e+00  8.55528709e-01
 -2.17277086e+00  1.89357324e+00  8.55528709e-01 -2.17277086e+00  1.89357324e+00
  8.55528709e-01 -2.17277086e+00  1.89357324e+00  8.55528709e-01 -2.17277086e+00
  1.89357324e+00  8.55528709e-01 -2.17277086e+00  1.89357324e+00  8.55528709e-01
 -2.17277086e+00  1.89357324e+00  8.55528709e-01 -2.17277086e+00  1.89357324e+00
  8.55528709e-01 -2.17277086e+00  1.89357324e+00  2.64675100e+00 -1.76076644e+00
  2.81556925e+00  2.64675100e+00 -1.76076644e+00  2.81556925e+00 -4.06209856e+00
  7.62169711e-01 -1.01656387e+00 -4.06209856e+00  7.62169711e-01 -1.01656387e+00
 -5.50674081e+00 -3.66777492e+00 -1.41252816e+00 -5.50674081e+00 -3.66777492e+00
 -1.41252816e+00 -2.87694437e+00 -7.17126193e+00  3.04677040e-01 -2.87694437e+00
 -7.17126193e+00  3.04677040e-01  1.20869534e+00 -6.19312291e+00  2.42352473e+00
  1.20869534e+00 -6.19312291e+00  2.42352473e+00
Total Energy                               R     -4.601417063252561e+02
Alpha Orbital Energies                     R   N=         206
 -1.92154637e+01 -1.91549349e+01 -1.03368320e+01 -1.02313455e+01 -1.02157458e+01
 -1.02037114e+01 -1.02036895e+01 -1.02030530e+01 -1.02028905e+01 -1.02020852e+01
 -1.11524430e+00 -1.03583589e+00 -8.70361536e-01 -8.01852245e-01 -7.56487004e-01
 -7.26034804e-01 -6.34743406e-01 -6.18579431e-01 -6.02614741e-01 -5.39343387e-01
 -5.16835105e-01 -4.94631719e-01 -4.78406004e-01 -4.55485577e-01 -4.52268383e-01
 -4.31934261e-01 -4.30978036e-01 -4.04017433e-01 -4.02058242e-01 -3.69562807e-01
 -3.55700362e-01 -3.53753393e-01 -3.33922541e-01 -2.90765783e-01 -2.62289852e-01
 -2.58166207e-01 -2.92318542e-02 -2.34487080e-02 -1.64232784e-02 -4.84921162e-03
  2.57580883e-03  1.89386452e-02  2.66109995e-02  3.58270035e-02  3.98882334e-02
  5.07378059e-02  6.20760355e-02  6.60935056e-02  6.61436627e-02  7.97153928e-02
  8.75134893e-02  9.84602221e-02  1.00938724e-01  1.10502431e-01  1.15079693e-01
  1.25313315e-01  1.37105856e-01  1.45855175e-01  1.49778702e-01  1.50282688e-01
  1.62427016e-01  1.65455037e-01  1.66710797e-01  1.68379674e-01  1.75045062e-01
  1.93462067e-01  1.97514510e-01  2.00421082e-01  2.06338960e-01  2.14982061e-01
  2.18493494e-01  2.29977200e-01  2.33975791e-01  2.35140433e-01  2.37231297e-01
  2.46136145e-01  2.54003392e-01  2.55528088e-01  2.63499245e-01  2.77923010e-01
  2.80534118e-01  2.94823763e-01  2.98653653e-01  3.10361153e-01  3.20496638e-01
  3.30742917e-01  3.31979135e-01  3.44864367e-01  3.48885000e-01  3.56665729e-01
  3.63275232e-01  3.73468165e-01  3.81131686e-01  4.01934696e-01  4.23922181e-01
  5.16408462e-01  5.53917715e-01  5.99097064e-01  6.25792100e-01  6.62195591e-01
  6.72172640e-01  6.86393396e-01  7.04950013e-01  7.09376850e-01  7.14806013e-01
  7.23155960e-01  7.34424003e-01  7.43882726e-01  7.51123540e-01  7.57276187e-01
  7.82192658e-01  7.92343507e-01  8.12483026e-01  8.46492144e-01  8.71623481e-01
  8.77430706e-01  8.94884119e-01  9.27985128e-01  9.41522965e-01  9.45385840e-01
  9.58251063e-01  9.92500627e-01  1.01292830e+00  1.01560797e+00  1.02668772e+00
  1.08001426e+00  1.08940089e+00  1.09552496e+00  1.13778723e+00  1.14139394e+00
  1.16823674e+00  1.17153595e+00  1.17621203e+00  1.21956981e+00  1.23114542e+00
  1.24730839e+00  1.30553148e+00  1.31177116e+00  1.35017857e+00  1.36367010e+00
  1.38902899e+00  1.42056614e+00  1.42709214e+00  1.43646724e+00  1.44274534e+00
  1.47237968e+00  1.47887607e+00  1.48817600e+00  1.50189877e+00  1.55573349e+00
  1.61308513e+00  1.63525920e+00  1.71558705e+00  1.71906645e+00  1.78315999e+00
  1.80745651e+00  1.82897678e+00  1.84494374e+00  1.85380696e+00  1.88222584e+00
  1.91041130e+00  1.94003357e+00  1.95624357e+00  1.96995109e+00  1.97935835e+00
  1.99037304e+00  2.06656600e+00  2.10316765e+00  2.10671275e+00  2.14085364e+00
  2.16886750e+00  2.17069747e+00  2.19851203e+00  2.26733671e+00  2.29825570e+00
  2.31250387e+00  2.32238361e+00  2.38491626e+00  2.43239273e+00  2.46608285e+00
  2.51807790e+00  2.59698485e+00  2.59731412e+00  2.62783558e+00  2.64643326e+00
  2.69139061e+00  2.73278371e+00  2.74204694e+00  2.77469132e+00  2.79635818e+00
  2.85638324e+00  2.92483068e+00  3.04645288e+00  3.10817548e+00  3.14629480e+00
  3.39653058e+00  4.07900004e+00  4.22253732e+00  4.23686539e+00  4.26130103e+00
  4.31140578e+00  4.37685075e+00  4.38255309e+00  4.45500743e+00  4.62060578e+00
  4.71561272e+00
Alpha MO coefficients                      R   N=       42436
 -1.08751435e-05 -3.21185257e-05 -1.12331154e-05 -4.02178463e-06  1.67334644e-05
  2.77104469e-04 -9.44677195e-05 -4.75945486e-04 -1.46014288e-04 -1.05169796e-05
 -4.24727052e-05 -1.66312075e-05 -5.64117149e-06 -9.21452242e-07 -1.54523095e-05
  6.51968021e-03 -8.37913119e-04 -4.66070103e-04  8.45144748e-04 -1.23061620e-05
 -1.34775119e-04  1.90410885e-05  2.46529406e-05 -1.67191319e-05  7.91797025e-04
 -3.99088289e-05 -2.13596805e-04 -7.19679674e-05  7.99631359e-06  5.77133626e-05
 -1.90159321e-06  4.42675004e-05 -1.69618100e-05 -2.18390402e-05 -9.15211582e-04
  1.56879023e-03  2.79323241e-03 -8.80739150e-04  4.30493664e-05 -9.08781099e-05
 -1.44806648e-04 -3.72878327e-04  6.81278538e-06  1.05790234e-04  3.73624993e-04
  2.42145429e-04 -4.88268448e-04  7.14442901e-05 -2.36755865e-04  9.41398090e-05
 -1.28824300e-04 -3.42446208e-06 -4.03883066e-05 -6.25462787e-03 -3.56605500e-05
 -2.34870858e-03 -1.48289551e-03 -9.92565882e-01 -2.53729450e-02  6.61580611e-04
  4.30884446e-04 -8.64594949e-04 -1.49926751e-02 -5.07856682e-04 -2.42911942e-04
  7.20626613e-04  8.60949908e-03  8.78616751e-03  8.63305410e-03  7.90908295e-05
 -3.31158622e-05  2.85897000e-05  7.18690427e-03  1.62824070e-04 -5.69850998e-04
 -6.52918560e-04 -1.05769074e-05 -1.01374159e-04 -1.02303706e-05 -1.04975600e-04
  3.11135008e-05 -9.43788954e-05  2.14142679e-06  2.83547269e-06 -1.76301830e-06
  5.03934741e-05 -2.64608028e-05 -8.09365873e-05 -7.73248538e-06 -6.35676220e-05
  5.01512737e-05 -2.34025100e-05  2.52191984e-05 -1.72214535e-05  5.49018469e-05
 -1.26662752e-03 -1.81530718e-05 -2.93515423e-04 -1.58036081e-04 -3.77331787e-04
  4.13999648e-04 -2.35139996e-06  1.57926646e-07  2.23260726e-06 -1.83770954e-06
  8.24615240e-06 -1.85421506e-04 -2.01339960e-04  1.36038692e-04 -1.02911388e-04
 -1.62011634e-05 -7.68779109e-06 -3.02740116e-06  2.10579950e-06 -3.17725794e-06
  7.51432573e-08 -1.25771060e-02  1.23442004e-03  4.04175561e-03  4.89942557e-06
 -4.05858178e-06 -1.47370503e-05 -1.38480525e-06  1.22987112e-06  5.56441293e-06
  1.92560792e-04  7.44194459e-05  4.21998963e-05  3.36493912e-06 -7.38250289e-06
 -5.43114855e-06 -6.34260946e-06  4.08909206e-06 -1.87741799e-06  1.50189028e-06
  1.29862713e-02  1.04695230e-03  2.85973020e-03  5.35804075e-04 -3.07890799e-06
 -1.08112808e-05 -2.01212068e-06 -1.75284014e-06  2.31022338e-06 -2.55143061e-06
 -5.96061091e-06 -1.93907464e-05 -2.12046764e-06 -4.02143888e-06 -5.51990033e-06
 -5.28996559e-06 -8.31788026e-07  1.27298182e-06 -3.63822571e-07 -2.93433236e-03
 -2.64852195e-04 -1.27067464e-03 -2.69734789e-04 -4.08608784e-06 -1.48959226e-05
 -3.14245562e-06  1.97981685e-06  4.51309413e-06  1.94338762e-04 -7.99410057e-06
  7.41729451e-05 -4.35494599e-05 -9.55176582e-06 -2.88259070e-06 -6.72898252e-06
  7.82190526e-07 -2.90888111e-06 -4.91388970e-07  1.30703319e-02  7.50063106e-04
  3.08205619e-03  3.57616148e-04 -2.43577033e-06 -6.06534476e-08 -8.29065326e-06
  1.85330766e-06  2.38982211e-06 -1.85464948e-04  2.24209699e-04 -2.18512284e-05
  1.39444508e-04 -8.38834842e-06 -9.11609682e-06 -1.00110371e-05  2.07752171e-06
 -7.43233792e-06  3.58795302e-06 -1.23778220e-02  1.58931687e-03  4.09464127e-03
  1.91299918e-04 -1.24053984e-05 -9.95423787e-05 -1.22167736e-05 -9.89296162e-05
  6.51567485e-06 -3.77639619e-05 -1.57876243e-07 -1.00759422e-05  6.47266589e-06
 -3.74584959e-05  1.81823020e-05  3.53236941e-05  2.34311045e-05  3.19038105e-05
 -1.90375082e-05 -7.42364468e-04 -2.22011657e-05 -1.34856302e-04 -6.83486650e-05
  5.78150571e-05  2.09173761e-05  5.80881373e-05  9.00760479e-06 -2.14067219e-05
 -3.25295820e-05  2.86881361e-02  3.30668057e-03  6.04205472e-03 -1.72135969e-03
  5.83327175e-06  3.74485763e-05  4.05605687e-06 -1.36963158e-05 -1.58068465e-05
 -4.80381305e-05 -3.78823410e-05 -9.90950317e-05  4.66662655e-06  1.61822268e-05
  3.46966323e-05 -2.08319738e-05  2.70694283e-05  1.07810271e-05 -3.07774739e-05
 -2.07962962e-02  1.00841558e-03  5.03817999e-03  1.54474404e-03 -1.02732812e-05
  3.88693567e-04  6.15163100e-05 -9.81975925e-05 -1.70856841e-04  4.97074261e-04
 -5.75507539e-05  6.10191993e-04  4.98159893e-04 -1.88518313e-04 -2.64511843e-04
 -4.28843148e-04  9.47699913e-05  7.96202599e-05 -2.28436255e-04  8.06440429e-03
 -1.09225850e-03 -3.41165476e-03 -3.29196210e-04  4.92422015e-05  7.05234884e-05
  7.30905068e-06  2.02319254e-05  3.13438399e-07 -2.96774543e-04 -4.89094343e-06
  7.33790460e-05  5.79028044e-05  4.41833203e-05 -5.40807126e-05 -1.14879135e-05
  2.90811747e-05 -1.68380918e-05 -1.11164049e-04  8.55243704e-05  2.91424091e-04
  2.77476528e-04 -3.28139426e-04 -4.46258116e-06 -1.25988953e-04 -4.66796607e-06
 -1.22922347e-04  9.92548785e-01  2.51608874e-02 -3.30668315e-04  7.90293599e-04
  1.09060224e-03  1.61186722e-02  4.87300892e-06 -4.33273813e-04 -2.92079594e-04
 -8.69261704e-03 -8.67111050e-03 -8.59910400e-03 -2.59842151e-05 -4.42964454e-05
  7.15652306e-05 -9.31158273e-03  6.03433902e-04  6.20616622e-04 -6.38857842e-04
  9.58245749e-06  8.43705905e-06 -3.50997000e-06 -6.67544350e-06 -1.20283375e-05
 -5.28735770e-06  1.12205267e-05  9.37916765e-05  3.55484581e-05 -8.61612280e-05
  1.69879057e-05 -9.74765475e-06 -6.75643021e-06 -1.28266053e-05  3.25902650e-06
  1.10411723e-06 -5.10320622e-06 -2.83000047e-03 -2.96782607e-03 -2.14090812e-03
  5.01138831e-04  4.50195656e-06  2.13582448e-05  1.68496980e-05  4.62205262e-06
 -9.69910706e-06 -2.74809482e-04 -2.65872175e-04  1.07229465e-05 -6.52941251e-05
 -3.85533696e-06 -1.04806770e-07  1.66792642e-05  1.80528913e-06  7.22284873e-07
  6.10223890e-06 -3.39099174e-03  4.10958491e-04 -1.05012783e-03 -5.92729533e-04
 -8.78368011e-06 -4.32236246e-05  2.94363550e-06  1.68685812e-06 -4.30797586e-06
  5.67174495e-04  9.32426119e-05  2.45350229e-04  5.95080948e-07 -6.59936782e-06
 -3.96649861e-06 -1.12801630e-05 -6.67266522e-07  5.26357873e-06  1.05574024e-06
  7.53654868e-04 -1.47516809e-04  5.66098999e-04  6.02934381e-04  4.60978137e-06
  2.17419414e-05  4.05672612e-06  9.67962417e-06 -1.71379921e-05 -2.75121741e-04
  1.52426630e-04 -1.45313013e-04  1.74813223e-04  5.30934975e-06  4.47031300e-06
  3.48476572e-06 -7.06930402e-06 -9.77973104e-06  7.42179372e-06 -3.55322294e-03
 -2.50713504e-04 -8.63299534e-04 -9.61663936e-04 -3.59038486e-06 -7.58913660e-06
 -7.71796490e-06 -7.15616011e-06  1.40093443e-05  1.03680771e-04 -6.85276361e-05
 -3.69408459e-05 -4.58419202e-05 -7.64307359e-06 -7.12251164e-06 -1.38621411e-05
  3.93449668e-06  6.87943208e-07 -4.52847931e-06 -2.73719017e-03 -4.30598571e-04
 -3.19273238e-03  1.95343451e-03 -1.28727688e-05 -2.79506669e-05 -1.21565229e-05
 -2.22200810e-05 -2.07532615e-05 -2.55450335e-05  6.55332018e-06  2.07814199e-05
 -2.08597630e-05 -2.35066595e-05 -8.05703408e-06 -8.57727512e-06 -4.44703501e-05
 -1.19799909e-04 -1.43153233e-06  2.10707167e-05 -1.62015902e-04  3.70364143e-05
  3.11819620e-04 -2.70559242e-05 -5.71700262e-07  4.14427682e-06 -9.92917647e-06
 -7.49196446e-06  3.73746849e-05  2.67294572e-02  1.14984431e-03  3.41189908e-03
  7.22642501e-04  8.48263256e-04 -2.64054815e-04 -5.79305579e-05  1.48431548e-05
  1.09054467e-04  5.08152987e-03  1.48226173e-03  1.00488118e-03 -1.90532129e-03
 -2.35519208e-04 -2.10533642e-04 -3.10623273e-04 -6.70547168e-05  1.35144246e-04
  6.79868170e-05  1.01102954e-02  3.28685072e-03  2.54483687e-03 -4.04588930e-03
  9.93210466e-01  4.95462784e-02  4.84640180e-04  5.69325586e-04 -4.67324400e-04
 -1.80895877e-02  1.67129393e-03  1.33401864e-04 -2.81139887e-03 -8.82237390e-03
 -8.20970918e-03 -8.35018885e-03  6.14729031e-05 -2.31565080e-04  4.59522054e-04
 -2.12379936e-02  3.46928674e-03  1.03432571e-03 -5.33758460e-03  3.95720605e-06
  3.66488453e-04  4.39829026e-05  4.43391195e-05 -4.72315666e-05 -6.63389376e-04
 -8.51174737e-05  7.50310855e-04  6.39090333e-04  2.75648208e-04 -4.43616802e-04
  3.39953744e-04 -2.74127281e-04 -4.27584362e-05 -1.20372973e-04  7.35446087e-03
 -1.77824716e-03 -1.63886197e-03  2.00888648e-03 -1.07967703e-04 -9.97888658e-04
 -1.08940776e-04 -9.86723485e-04 -1.27119111e-04  4.95212869e-04 -1.91413528e-05
 -1.56304811e-05  2.29837158e-05 -2.57851472e-03  2.23387308e-04 -7.63058890e-04
 -8.87080373e-04  4.08608358e-04  1.69343412e-04  2.04499074e-04  8.70712732e-06