Generated by Psi4
     FORCE                           RHF                       TESTBAS
Number of atoms                            I               26
Charge                                     I                0
Multiplicity                               I                1
Number of electrons                        I               82
Number of alpha electrons                  I               41
Number of beta electrons                   I               41
Number of basis functions                  I              239
Number of independent functions            I              239
Atomic numbers                             I   N=          26
           6           6           6           1           1           7
           6           6           6           6           6           6
           1           1           1           1           1           1
           1           1           6           1           1           1
           1           1
Nuclear charges                            R   N=          26
  6.00000000e+00  6.00000000e+00  6.00000000e+00  1.00000000e+00  1.00000000e+00
  7.00000000e+00  6.00000000e+00  6.00000000e+00  6.00000000e+00  6.00000000e+00
  6.00000000e+00  6.00000000e+00  1.00000000e+00  1.00000000e+00  1.00000000e+00
  1.00000000e+00  1.00000000e+00  1.00000000e+00  1.00000000e+00  1.00000000e+00
  6.00000000e+00  1.00000000e+00  1.00000000e+00  1.00000000e+00  1.00000000e+00
  1.00000000e+00
Current cartesian coordinates              R   N=          78
  1.61399018e+00 -6.11987569e-01 -5.32978864e-01  5.45326626e-01 -1.96629905e+00
  1.75095243e+00 -2.31514929e+00 -1.49543774e+00  2.26068053e+00  1.61166286e+00
 -1.42871733e+00  3.45095060e+00  8.09508901e-01 -4.01293108e+00  1.51274643e+00
 -3.35618762e+00 -3.16914641e+00  4.21897711e+00  3.18638226e+00  1.50683505e+00
 -2.77254536e-01  4.14127918e+00  2.76261711e+00 -2.39664002e+00  3.53644793e+00
  1.91641198e+00 -4.82323681e+00  1.97708493e+00 -1.97782587e-01 -5.10996300e+00
  1.03282323e+00 -1.44612617e+00 -2.98492731e+00 -2.86246774e+00  1.26656447e+00
  2.97205183e+00 -3.35070980e+00 -1.92973127e+00  5.12271272e-01  1.50467079e+00
 -8.81775305e-01 -6.98918935e+00 -1.63008043e-01 -3.10173511e+00 -3.23260214e+00
  5.36093716e+00  4.39772863e+00 -2.14907662e+00  3.67415056e+00  2.17795897e+00
  1.60443628e+00  4.27900019e+00  2.88681247e+00 -6.47447448e+00 -2.42716612e+00
 -2.91206397e+00  5.88920381e+00 -3.13659539e+00 -5.02012702e+00  3.73731936e+00
 -5.68379286e+00  1.91434636e+00  3.07805296e+00 -1.91466975e+00  2.50758694e+00
  1.60911257e+00 -1.98239746e+00  1.65504130e+00  4.81960299e+00 -6.56948508e+00
  1.66172398e+00  1.21917089e+00 -5.96758416e+00  3.88788534e+00  3.64387045e+00
 -6.67748646e+00  6.95866877e-01  4.42094336e+00
Integer atomic weights                     I   N=          26
          12          12          12           1           1          14
          12          12          12          12          12          12
           1           1           1           1           1           1
           1           1          12           1           1           1
           1           1
Real atomic weights                        R   N=          26
  1.20000000e+01  1.20000000e+01  1.20000000e+01  1.00782503e+00  1.00782503e+00
  1.40030740e+01  1.20000000e+01  1.20000000e+01  1.20000000e+01  1.20000000e+01
  1.20000000e+01  1.20000000e+01  1.00782503e+00  1.00782503e+00  1.00782503e+00
  1.00782503e+00  1.00782503e+00  1.00782503e+00  1.00782503e+00  1.00782503e+00
  1.20000000e+01  1.00782503e+00  1.00782503e+00  1.00782503e+00  1.00782503e+00
  1.00782503e+00
Number of primitive shells                 I              247
Number of contracted shells                I              118
Pure/Cartesian d shells                    I                1
Pure/Cartesian f shells                    I                1
Highest angular momentum                   I                2
Largest degree of contraction              I                6
Shell types                                I   N=         118
           0           0           1           0           1           2
           0           1           0           0           1           0
           1           2           0           1           0           0
           1           0           1           2           0           1
           0           0           0           0           0           0
           1           0           1           2           0           1
           0           0           1           0           1           2
           0           1           0           0           1           0
           1           2           0           1           0           0
           1           0           1           2           0           1
           0           0           1           0           1           2
           0           1           0           0           1           0
           1           2           0           1           0           0
           1           0           1           2           0           1
           0           0           0           0           0           0
           0           0           0           0           0           0
           0           0           0           0           0           0
           1           0           1           2           0           1
           0           0           0           0           0           0
           0           0           0           0
Number of primitives per shell             I   N=         118
           6           3           3           1           1           1
           1           1           6           3           3           1
           1           1           1           1           6           3
           3           1           1           1           1           1
           3           1           3           1           6           3
           3           1           1           1           1           1
           6           3           3           1           1           1
           1           1           6           3           3           1
           1           1           1           1           6           3
           3           1           1           1           1           1
           6           3           3           1           1           1
           1           1           6           3           3           1
           1           1           1           1           6           3
           3           1           1           1           1           1
           3           1           3           1           3           1
           3           1           3           1           3           1
           3           1           3           1           6           3
           3           1           1           1           1           1
           3           1           3           1           3           1
           3           1           3           1
Shell to atom map                          I   N=         118
           1           1           1           1           1           1
           1           1           2           2           2           2
           2           2           2           2           3           3
           3           3           3           3           3           3
           4           4           5           5           6           6
           6           6           6           6           6           6
           7           7           7           7           7           7
           7           7           8           8           8           8
           8           8           8           8           9           9
           9           9           9           9           9           9
          10          10          10          10          10          10
          10          10          11          11          11          11
          11          11          11          11          12          12
          12          12          12          12          12          12
          13          13          14          14          15          15
          16          16          17          17          18          18
          19          19          20          20          21          21
          21          21          21          21          21          21
          22          22          23          23          24          24
          25          25          26          26
Primitive exponents                        R   N=         247
  3.04752490e+03  4.57369510e+02  1.03948690e+02  2.92101550e+01  9.28666300e+00
  3.16392700e+00  7.86827240e+00  1.88128850e+00  5.44249300e-01  7.86827240e+00
  1.88128850e+00  5.44249300e-01  1.68714400e-01  1.68714400e-01  8.00000000e-01
  4.38000000e-02  4.38000000e-02  3.04752490e+03  4.57369510e+02  1.03948690e+02
  2.92101550e+01  9.28666300e+00  3.16392700e+00  7.86827240e+00  1.88128850e+00
  5.44249300e-01  7.86827240e+00  1.88128850e+00  5.44249300e-01  1.68714400e-01
  1.68714400e-01  8.00000000e-01  4.38000000e-02  4.38000000e-02  3.04752490e+03
  4.57369510e+02  1.03948690e+02  2.92101550e+01  9.28666300e+00  3.16392700e+00
  7.86827240e+00  1.88128850e+00  5.44249300e-01  7.86827240e+00  1.88128850e+00
  5.44249300e-01  1.68714400e-01  1.68714400e-01  8.00000000e-01  4.38000000e-02
  4.38000000e-02  1.87311370e+01  2.82539370e+00  6.40121700e-01  1.61277800e-01
  1.87311370e+01  2.82539370e+00  6.40121700e-01  1.61277800e-01  4.17351100e+03
  6.27457900e+02  1.42902100e+02  4.02343300e+01  1.28202100e+01  4.39043700e+00
  1.16263580e+01  2.71628000e+00  7.72218000e-01  1.16263580e+01  2.71628000e+00
  7.72218000e-01  2.12031300e-01  2.12031300e-01  8.00000000e-01  6.39000000e-02
  6.39000000e-02  3.04752490e+03  4.57369510e+02  1.03948690e+02  2.92101550e+01
  9.28666300e+00  3.16392700e+00  7.86827240e+00  1.88128850e+00  5.44249300e-01
  7.86827240e+00  1.88128850e+00  5.44249300e-01  1.68714400e-01  1.68714400e-01
  8.00000000e-01  4.38000000e-02  4.38000000e-02  3.04752490e+03  4.57369510e+02
  1.03948690e+02  2.92101550e+01  9.28666300e+00  3.16392700e+00  7.86827240e+00
  1.88128850e+00  5.44249300e-01  7.86827240e+00  1.88128850e+00  5.44249300e-01
  1.68714400e-01  1.68714400e-01  8.00000000e-01  4.38000000e-02  4.38000000e-02
  3.04752490e+03  4.57369510e+02  1.03948690e+02  2.92101550e+01  9.28666300e+00
  3.16392700e+00  7.86827240e+00  1.88128850e+00  5.44249300e-01  7.86827240e+00
  1.88128850e+00  5.44249300e-01  1.68714400e-01  1.68714400e-01  8.00000000e-01
  4.38000000e-02  4.38000000e-02  3.04752490e+03  4.57369510e+02  1.03948690e+02
  2.92101550e+01  9.28666300e+00  3.16392700e+00  7.86827240e+00  1.88128850e+00
  5.44249300e-01  7.86827240e+00  1.88128850e+00  5.44249300e-01  1.68714400e-01
  1.68714400e-01  8.00000000e-01  4.38000000e-02  4.38000000e-02  3.04752490e+03
  4.57369510e+02  1.03948690e+02  2.92101550e+01  9.28666300e+00  3.16392700e+00
  7.86827240e+00  1.88128850e+00  5.44249300e-01  7.86827240e+00  1.88128850e+00
  5.44249300e-01  1.68714400e-01  1.68714400e-01  8.00000000e-01  4.38000000e-02
  4.38000000e-02  3.04752490e+03  4.57369510e+02  1.03948690e+02  2.92101550e+01
  9.28666300e+00  3.16392700e+00  7.86827240e+00  1.88128850e+00  5.44249300e-01
  7.86827240e+00  1.88128850e+00  5.44249300e-01  1.68714400e-01  1.68714400e-01
  8.00000000e-01  4.38000000e-02  4.38000000e-02  1.87311370e+01  2.82539370e+00
  6.40121700e-01  1.61277800e-01  1.87311370e+01  2.82539370e+00  6.40121700e-01
  1.61277800e-01  1.87311370e+01  2.82539370e+00  6.40121700e-01  1.61277800e-01
  1.87311370e+01  2.82539370e+00  6.40121700e-01  1.61277800e-01  1.87311370e+01
  2.82539370e+00  6.40121700e-01  1.61277800e-01  1.87311370e+01  2.82539370e+00
  6.40121700e-01  1.61277800e-01  1.87311370e+01  2.82539370e+00  6.40121700e-01
  1.61277800e-01  1.87311370e+01  2.82539370e+00  6.40121700e-01  1.61277800e-01
  3.04752490e+03  4.57369510e+02  1.03948690e+02  2.92101550e+01  9.28666300e+00
  3.16392700e+00  7.86827240e+00  1.88128850e+00  5.44249300e-01  7.86827240e+00
  1.88128850e+00  5.44249300e-01  1.68714400e-01  1.68714400e-01  8.00000000e-01
  4.38000000e-02  4.38000000e-02  1.87311370e+01  2.82539370e+00  6.40121700e-01
  1.61277800e-01  1.87311370e+01  2.82539370e+00  6.40121700e-01  1.61277800e-01
  1.87311370e+01  2.82539370e+00  6.40121700e-01  1.61277800e-01  1.87311370e+01
  2.82539370e+00  6.40121700e-01  1.61277800e-01  1.87311370e+01  2.82539370e+00
  6.40121700e-01  1.61277800e-01
Contraction coefficients                   R   N=         247
  1.83470016e-03  1.40373012e-02  6.88426061e-02  2.32184421e-01  4.67941342e-01
  3.62312032e-01 -1.19332409e-01 -1.60854212e-01  1.14345648e+00  6.89990956e-02
  3.16423980e-01  7.44308252e-01  1.00000000e+00  1.00000000e+00  1.00000000e+00
  1.00000000e+00  1.00000000e+00  1.83470016e-03  1.40373012e-02  6.88426061e-02
  2.32184421e-01  4.67941342e-01  3.62312032e-01 -1.19332409e-01 -1.60854212e-01
  1.14345648e+00  6.89990956e-02  3.16423980e-01  7.44308252e-01  1.00000000e+00
  1.00000000e+00  1.00000000e+00  1.00000000e+00  1.00000000e+00  1.83470016e-03
  1.40373012e-02  6.88426061e-02  2.32184421e-01  4.67941342e-01  3.62312032e-01
 -1.19332409e-01 -1.60854212e-01  1.14345648e+00  6.89990956e-02  3.16423980e-01
  7.44308252e-01  1.00000000e+00  1.00000000e+00  1.00000000e+00  1.00000000e+00
  1.00000000e+00  3.34945995e-02  2.34726947e-01  8.13757318e-01  1.00000000e+00
  3.34945995e-02  2.34726947e-01  8.13757318e-01  1.00000000e+00  1.83479944e-03
  1.39949958e-02  6.85869792e-02  2.32240930e-01  4.69069858e-01  3.60454891e-01
 -1.14961023e-01 -1.69118034e-01  1.14585223e+00  6.75800232e-02  3.23907111e-01
  7.40895255e-01  1.00000000e+00  1.00000000e+00  1.00000000e+00  1.00000000e+00
  1.00000000e+00  1.83470016e-03  1.40373012e-02  6.88426061e-02  2.32184421e-01
  4.67941342e-01  3.62312032e-01 -1.19332409e-01 -1.60854212e-01  1.14345648e+00
  6.89990956e-02  3.16423980e-01  7.44308252e-01  1.00000000e+00  1.00000000e+00
  1.00000000e+00  1.00000000e+00  1.00000000e+00  1.83470016e-03  1.40373012e-02
  6.88426061e-02  2.32184421e-01  4.67941342e-01  3.62312032e-01 -1.19332409e-01
 -1.60854212e-01  1.14345648e+00  6.89990956e-02  3.16423980e-01  7.44308252e-01
  1.00000000e+00  1.00000000e+00  1.00000000e+00  1.00000000e+00  1.00000000e+00
  1.83470016e-03  1.40373012e-02  6.88426061e-02  2.32184421e-01  4.67941342e-01
  3.62312032e-01 -1.19332409e-01 -1.60854212e-01  1.14345648e+00  6.89990956e-02
  3.16423980e-01  7.44308252e-01  1.00000000e+00  1.00000000e+00  1.00000000e+00
  1.00000000e+00  1.00000000e+00  1.83470016e-03  1.40373012e-02  6.88426061e-02
  2.32184421e-01  4.67941342e-01  3.62312032e-01 -1.19332409e-01 -1.60854212e-01
  1.14345648e+00  6.89990956e-02  3.16423980e-01  7.44308252e-01  1.00000000e+00
  1.00000000e+00  1.00000000e+00  1.00000000e+00  1.00000000e+00  1.83470016e-03
  1.40373012e-02  6.88426061e-02  2.32184421e-01  4.67941342e-01  3.62312032e-01
 -1.19332409e-01 -1.60854212e-01  1.14345648e+00  6.89990956e-02  3.16423980e-01
  7.44308252e-01  1.00000000e+00  1.00000000e+00  1.00000000e+00  1.00000000e+00
  1.00000000e+00  1.83470016e-03  1.40373012e-02  6.88426061e-02  2.32184421e-01
  4.67941342e-01  3.62312032e-01 -1.19332409e-01 -1.60854212e-01  1.14345648e+00
  6.89990956e-02  3.16423980e-01  7.44308252e-01  1.00000000e+00  1.00000000e+00
  1.00000000e+00  1.00000000e+00  1.00000000e+00  3.34945995e-02  2.34726947e-01
  8.13757318e-01  1.00000000e+00  3.34945995e-02  2.34726947e-01  8.13757318e-01
  1.00000000e+00  3.34945995e-02  2.34726947e-01  8.13757318e-01  1.00000000e+00
  3.34945995e-02  2.34726947e-01  8.13757318e-01  1.00000000e+00  3.34945995e-02
  2.34726947e-01  8.13757318e-01  1.00000000e+00  3.34945995e-02  2.34726947e-01
  8.13757318e-01  1.00000000e+00  3.34945995e-02  2.34726947e-01  8.13757318e-01
  1.00000000e+00  3.34945995e-02  2.34726947e-01  8.13757318e-01  1.00000000e+00
  1.83470016e-03  1.40373012e-02  6.88426061e-02  2.32184421e-01  4.67941342e-01
  3.62312032e-01 -1.19332409e-01 -1.60854212e-01  1.14345648e+00  6.89990956e-02
  3.16423980e-01  7.44308252e-01  1.00000000e+00  1.00000000e+00  1.00000000e+00
  1.00000000e+00  1.00000000e+00  3.34945995e-02  2.34726947e-01  8.13757318e-01
  1.00000000e+00  3.34945995e-02  2.34726947e-01  8.13757318e-01  1.00000000e+00
  3.34945995e-02  2.34726947e-01  8.13757318e-01  1.00000000e+00  3.34945995e-02
  2.34726947e-01  8.13757318e-01  1.00000000e+00  3.34945995e-02  2.34726947e-01
  8.13757318e-01  1.00000000e+00
Coordinates of each shell                  R   N=         354
  1.61399018e+00 -6.11987569e-01 -5.32978864e-01  1.61399018e+00 -6.11987569e-01
 -5.32978864e-01  1.61399018e+00 -6.11987569e-01 -5.32978864e-01  1.61399018e+00
 -6.11987569e-01 -5.32978864e-01  1.61399018e+00 -6.11987569e-01 -5.32978864e-01
  1.61399018e+00 -6.11987569e-01 -5.32978864e-01  1.61399018e+00 -6.11987569e-01
 -5.32978864e-01  1.61399018e+00 -6.11987569e-01 -5.32978864e-01  5.45326626e-01
 -1.96629905e+00  1.75095243e+00  5.45326626e-01 -1.96629905e+00  1.75095243e+00
  5.45326626e-01 -1.96629905e+00  1.75095243e+00  5.45326626e-01 -1.96629905e+00
  1.75095243e+00  5.45326626e-01 -1.96629905e+00  1.75095243e+00  5.45326626e-01
 -1.96629905e+00  1.75095243e+00  5.45326626e-01 -1.96629905e+00  1.75095243e+00
  5.45326626e-01 -1.96629905e+00  1.75095243e+00 -2.31514929e+00 -1.49543774e+00
  2.26068053e+00 -2.31514929e+00 -1.49543774e+00  2.26068053e+00 -2.31514929e+00
 -1.49543774e+00  2.26068053e+00 -2.31514929e+00 -1.49543774e+00  2.26068053e+00
 -2.31514929e+00 -1.49543774e+00  2.26068053e+00 -2.31514929e+00 -1.49543774e+00
  2.26068053e+00 -2.31514929e+00 -1.49543774e+00  2.26068053e+00 -2.31514929e+00
 -1.49543774e+00  2.26068053e+00  1.61166286e+00 -1.42871733e+00  3.45095060e+00
  1.61166286e+00 -1.42871733e+00  3.45095060e+00  8.09508901e-01 -4.01293108e+00
  1.51274643e+00  8.09508901e-01 -4.01293108e+00  1.51274643e+00 -3.35618762e+00
 -3.16914641e+00  4.21897711e+00 -3.35618762e+00 -3.16914641e+00  4.21897711e+00
 -3.35618762e+00 -3.16914641e+00  4.21897711e+00 -3.35618762e+00 -3.16914641e+00
  4.21897711e+00 -3.35618762e+00 -3.16914641e+00  4.21897711e+00 -3.35618762e+00
 -3.16914641e+00  4.21897711e+00 -3.35618762e+00 -3.16914641e+00  4.21897711e+00
 -3.35618762e+00 -3.16914641e+00  4.21897711e+00  3.18638226e+00  1.50683505e+00
 -2.77254536e-01  3.18638226e+00  1.50683505e+00 -2.77254536e-01  3.18638226e+00
  1.50683505e+00 -2.77254536e-01  3.18638226e+00  1.50683505e+00 -2.77254536e-01
  3.18638226e+00  1.50683505e+00 -2.77254536e-01  3.18638226e+00  1.50683505e+00
 -2.77254536e-01  3.18638226e+00  1.50683505e+00 -2.77254536e-01  3.18638226e+00
  1.50683505e+00 -2.77254536e-01  4.14127918e+00  2.76261711e+00 -2.39664002e+00
  4.14127918e+00  2.76261711e+00 -2.39664002e+00  4.14127918e+00  2.76261711e+00
 -2.39664002e+00  4.14127918e+00  2.76261711e+00 -2.39664002e+00  4.14127918e+00
  2.76261711e+00 -2.39664002e+00  4.14127918e+00  2.76261711e+00 -2.39664002e+00
  4.14127918e+00  2.76261711e+00 -2.39664002e+00  4.14127918e+00  2.76261711e+00
 -2.39664002e+00  3.53644793e+00  1.91641198e+00 -4.82323681e+00  3.53644793e+00
  1.91641198e+00 -4.82323681e+00  3.53644793e+00  1.91641198e+00 -4.82323681e+00
  3.53644793e+00  1.91641198e+00 -4.82323681e+00  3.53644793e+00  1.91641198e+00
 -4.82323681e+00  3.53644793e+00  1.91641198e+00 -4.82323681e+00  3.53644793e+00
  1.91641198e+00 -4.82323681e+00  3.53644793e+00  1.91641198e+00 -4.82323681e+00
  1.97708493e+00 -1.97782587e-01 -5.10996300e+00  1.97708493e+00 -1.97782587e-01
 -5.10996300e+00  1.97708493e+00 -1.97782587e-01 -5.10996300e+00  1.97708493e+00
 -1.97782587e-01 -5.10996300e+00  1.97708493e+00 -1.97782587e-01 -5.10996300e+00
  1.97708493e+00 -1.97782587e-01 -5.10996300e+00  1.97708493e+00 -1.97782587e-01
 -5.10996300e+00  1.97708493e+00 -1.97782587e-01 -5.10996300e+00  1.03282323e+00
 -1.44612617e+00 -2.98492731e+00  1.03282323e+00 -1.44612617e+00 -2.98492731e+00
  1.03282323e+00 -1.44612617e+00 -2.98492731e+00  1.03282323e+00 -1.44612617e+00
 -2.98492731e+00  1.03282323e+00 -1.44612617e+00 -2.98492731e+00  1.03282323e+00
 -1.44612617e+00 -2.98492731e+00  1.03282323e+00 -1.44612617e+00 -2.98492731e+00
  1.03282323e+00 -1.44612617e+00 -2.98492731e+00 -2.86246774e+00  1.26656447e+00
  2.97205183e+00 -2.86246774e+00  1.26656447e+00  2.97205183e+00 -2.86246774e+00
  1.26656447e+00  2.97205183e+00 -2.86246774e+00  1.26656447e+00  2.97205183e+00
 -2.86246774e+00  1.26656447e+00  2.97205183e+00 -2.86246774e+00  1.26656447e+00
  2.97205183e+00 -2.86246774e+00  1.26656447e+00  2.97205183e+00 -2.86246774e+00
  1.26656447e+00  2.97205183e+00 -3.35070980e+00 -1.92973127e+00  5.12271272e-01
 -3.35070980e+00 -1.92973127e+00  5.12271272e-01  1.50467079e+00 -8.81775305e-01
 -6.98918935e+00  1.50467079e+00 -8.81775305e-01 -6.98918935e+00 -1.63008043e-01
 -3.10173511e+00 -3.23260214e+00 -1.63008043e-01 -3.10173511e+00 -3.23260214e+00
  5.36093716e+00  4.39772863e+00 -2.14907662e+00  5.36093716e+00  4.39772863e+00
 -2.14907662e+00  3.67415056e+00  2.17795897e+00  1.60443628e+00  3.67415056e+00
  2.17795897e+00  1.60443628e+00  4.27900019e+00  2.88681247e+00 -6.47447448e+00
  4.27900019e+00  2.88681247e+00 -6.47447448e+00 -2.42716612e+00 -2.91206397e+00
  5.88920381e+00 -2.42716612e+00 -2.91206397e+00  5.88920381e+00 -3.13659539e+00
 -5.02012702e+00  3.73731936e+00 -3.13659539e+00 -5.02012702e+00  3.73731936e+00
 -5.68379286e+00  1.91434636e+00  3.07805296e+00 -5.68379286e+00  1.91434636e+00
  3.07805296e+00 -5.68379286e+00  1.91434636e+00  3.07805296e+00 -5.68379286e+00
  1.91434636e+00  3.07805296e+00 -5.68379286e+00  1.91434636e+00  3.07805296e+00
 -5.68379286e+00  1.91434636e+00  3.07805296e+00 -5.68379286e+00  1.91434636e+00
  3.07805296e+00 -5.68379286e+00  1.91434636e+00  3.07805296e+00 -1.91466975e+00
  2.50758694e+00  1.60911257e+00 -1.91466975e+00  2.50758694e+00  1.60911257e+00
 -1.98239746e+00  1.65504130e+00  4.81960299e+00 -1.98239746e+00  1.65504130e+00
  4.81960299e+00 -6.56948508e+00  1.66172398e+00  1.21917089e+00 -6.56948508e+00
  1.66172398e+00  1.21917089e+00 -5.96758416e+00  3.88788534e+00  3.64387045e+00
 -5.96758416e+00  3.88788534e+00  3.64387045e+00 -6.67748646e+00  6.95866877e-01
  4.42094336e+00 -6.67748646e+00  6.95866877e-01  4.42094336e+00
Total Energy                               R     -4.448682045319553e+02
Alpha Orbital Energies                     R   N=         239
 -1.43229342e+01 -1.02195602e+01 -1.02033643e+01 -1.01977174e+01 -1.01973461e+01
 -1.01958596e+01 -1.01953162e+01 -1.01950196e+01 -1.01921823e+01 -1.01811761e+01
 -1.01677196e+01 -8.93187401e-01 -8.59536653e-01 -7.83725689e-01 -7.57662295e-01
 -7.49199384e-01 -7.03760004e-01 -6.38922219e-01 -6.11168750e-01 -5.91844671e-01
 -5.73017973e-01 -5.17226590e-01 -4.99144717e-01 -4.64268499e-01 -4.62297446e-01
 -4.54463955e-01 -4.32530780e-01 -4.24993288e-01 -4.17709000e-01 -4.06920258e-01
 -3.97679056e-01 -3.69133064e-01 -3.66560494e-01 -3.49189668e-01 -3.44474465e-01
 -3.41297273e-01 -3.34240793e-01 -3.24588269e-01 -2.57537086e-01 -2.56166813e-01
 -2.35047289e-01 -1.76227102e-02 -1.39051497e-02 -4.15761932e-04  9.20457445e-03
  1.51173306e-02  2.47986330e-02  3.27124181e-02  3.67859485e-02  4.47799880e-02
  5.02009284e-02  5.76358905e-02  5.88937342e-02  6.47352026e-02  7.30550022e-02
  8.35104749e-02  8.60446363e-02  9.26185140e-02  1.00709361e-01  1.03698885e-01
  1.09416829e-01  1.15245210e-01  1.20964861e-01  1.24883884e-01  1.28511238e-01
  1.32699715e-01  1.42022184e-01  1.47473054e-01  1.54564928e-01  1.61833198e-01
  1.67051378e-01  1.67832632e-01  1.74394415e-01  1.74758015e-01  1.82068305e-01
  1.87037997e-01  1.94650559e-01  2.02779680e-01  2.05689349e-01  2.06864741e-01
  2.11645773e-01  2.15146481e-01  2.22378580e-01  2.25100500e-01  2.29738490e-01
  2.39899378e-01  2.43482418e-01  2.46971963e-01  2.51301339e-01  2.61891907e-01
  2.62704401e-01  2.64292018e-01  2.66348695e-01  2.74061081e-01  2.81005169e-01
  2.85777730e-01  2.94892121e-01  2.97911843e-01  3.06070800e-01  3.10926404e-01
  3.14337578e-01  3.35564358e-01  3.46791424e-01  3.50471586e-01  3.52269928e-01
  3.57148775e-01  3.64345856e-01  3.79272271e-01  3.83977068e-01  3.98553404e-01
  3.98905748e-01  4.69059795e-01  5.66673469e-01  6.02470381e-01  6.40294717e-01
  6.48053528e-01  6.64107267e-01  6.75446764e-01  6.86167022e-01  6.92062735e-01
  7.06824258e-01  7.07858618e-01  7.16627311e-01  7.24178113e-01  7.31890103e-01
  7.41618847e-01  7.50447375e-01  7.56321159e-01  7.70419359e-01  7.87600891e-01
  7.92015407e-01  7.99055399e-01  8.10732323e-01  8.34183416e-01  8.41393201e-01
  8.88749354e-01  8.97577476e-01  9.01351013e-01  9.33445721e-01  9.36646842e-01
  9.57865443e-01  9.63507229e-01  9.76069708e-01  9.81008750e-01  9.91488420e-01
  1.01194665e+00  1.01686892e+00  1.03217549e+00  1.03361024e+00  1.05130100e+00
  1.06400532e+00  1.08539013e+00  1.09713259e+00  1.09993212e+00  1.11813060e+00
  1.13270438e+00  1.14233526e+00  1.15381934e+00  1.16385622e+00  1.18535921e+00
  1.19103877e+00  1.19920590e+00  1.20317828e+00  1.25710625e+00  1.26512947e+00
  1.29399605e+00  1.34525044e+00  1.39431246e+00  1.41801919e+00  1.44255911e+00
  1.45437686e+00  1.48113016e+00  1.48427392e+00  1.50408409e+00  1.51113701e+00
  1.52083436e+00  1.56947286e+00  1.58691073e+00  1.62566116e+00  1.71200495e+00
  1.76434544e+00  1.78706772e+00  1.82276458e+00  1.83902580e+00  1.86142189e+00
  1.91046929e+00  1.91887390e+00  1.93432560e+00  1.94695940e+00  1.95874035e+00
  1.97833615e+00  2.00075021e+00  2.01612429e+00  2.03389950e+00  2.06296224e+00
  2.09390349e+00  2.10664002e+00  2.12381574e+00  2.14597674e+00  2.15737440e+00
  2.17783835e+00  2.19318401e+00  2.22380782e+00  2.24854870e+00  2.27901621e+00
  2.28480529e+00  2.30730029e+00  2.35217612e+00  2.36105091e+00  2.38697322e+00
  2.42574165e+00  2.43255174e+00  2.51847014e+00  2.55010504e+00  2.59178447e+00
  2.61347497e+00  2.62338392e+00  2.64834122e+00  2.72742642e+00  2.74659051e+00
  2.75479948e+00  2.76194918e+00  2.78135649e+00  2.80460954e+00  2.85796342e+00
  2.96551454e+00  3.05949703e+00  3.39942888e+00  3.99382069e+00  4.22625407e+00
  4.24941282e+00  4.25255633e+00  4.30995203e+00  4.35948390e+00  4.38843415e+00
  4.44085661e+00  4.51510510e+00  4.63736057e+00  4.71579973e+00
Alpha MO coefficients                      R   N=       57121
  3.14394900e-06  2.02871355e-05 -9.85100268e-06 -2.42489995e-06  1.45700918e-05
 -3.38682087e-05  2.24571248e-04  2.16927627e-04 -5.38970296e-04  3.95995856e-06
  2.93239035e-06 -9.11544645e-06 -8.56899957e-06  1.61937662e-05  1.81561239e-05
  9.90834493e-03 -3.32436234e-05  7.73526895e-07  2.95033799e-03 -1.53483837e-06
 -7.64165879e-05 -3.91065606e-05 -1.96826177e-05  3.30213237e-05  5.88648888e-04
  8.43175135e-06  2.44750591e-04 -2.86109986e-04  4.15677223e-05  1.86958120e-05
  5.14937339e-05  2.33799234e-05 -3.65258741e-05 -2.34307549e-05 -8.87272886e-03
 -9.88229593e-04 -1.43690879e-03  3.04953108e-03  2.45275919e-05  2.01969892e-05
  1.02663102e-04  1.45656654e-04 -1.77167187e-04 -6.03686346e-04 -1.50181817e-04
  2.47645346e-04 -2.76712728e-04  2.91834596e-05 -3.06914327e-05 -5.11832157e-05
 -4.27423628e-05  6.92850731e-05  1.15179668e-04 -7.67766954e-03  1.12652822e-03
 -3.28637388e-04 -2.82887728e-03 -3.83416804e-05  3.02148948e-04 -1.49599580e-05
  2.42080890e-04 -9.92656503e-01 -3.46302936e-02 -1.18445294e-03  3.06602780e-04
  1.00323030e-04 -4.27303017e-03  1.04121782e-03 -9.66060444e-05 -2.89770469e-04
  8.35415851e-03  8.35094691e-03  8.37762318e-03  5.43863846e-05 -6.48538081e-05
 -6.25122645e-05  5.33610777e-03 -4.23689114e-04  8.25402558e-04 -4.52811686e-04
  1.88973575e-06  9.04424150e-06  2.58047024e-07  3.38050303e-06 -1.33021185e-07
 -2.25699816e-04  7.57560108e-06  2.79639773e-05  2.22714644e-04  5.98613914e-06
 -4.74897010e-07 -3.41850503e-07 -3.14154178e-06 -4.47510895e-06 -7.89711190e-06
 -3.35700572e-03  1.02287932e-03  1.11322217e-03 -3.22156530e-04 -8.35763664e-07
 -4.34362528e-06 -2.09210372e-06 -4.98088578e-06  3.13501512e-06  2.03875046e-04
 -4.10558625e-05 -4.95867954e-05  3.75700207e-05  7.47003433e-07 -1.52447583e-06
 -8.17335973e-07 -1.65702266e-06 -3.69347089e-07 -4.30456644e-07  2.24347184e-03
 -2.66674409e-04 -1.92505611e-04 -1.05368042e-03 -4.69672707e-08  1.00354253e-06
  7.58298452e-07 -8.07833609e-07  5.83587979e-07 -6.22521705e-05  2.55334712e-05
  3.84271891e-05 -3.93140834e-05  4.01118352e-08 -1.22261043e-06 -1.07701342e-06
 -1.38106772e-06 -2.21917153e-07  9.65009422e-08 -8.11954904e-04 -4.93732853e-04
 -7.78318606e-04 -1.09351510e-03 -2.67261310e-06 -1.18247592e-05  1.04236829e-06
 -1.58796557e-06  3.92897065e-06  2.42425216e-04  3.27037947e-06  1.20845509e-05
  1.04329923e-04 -3.59628446e-06 -3.47555267e-06 -1.97603641e-06 -1.35177868e-06
 -1.04517468e-06 -1.29365616e-06  5.84869085e-03 -1.27387214e-03 -1.54782605e-03
  1.70678165e-03  2.74032074e-06  1.67995273e-05  1.70739160e-06  1.05893774e-06
  5.84004354e-07 -3.21383978e-04 -1.72638422e-04 -2.12153490e-04 -6.17651068e-05
  1.87117369e-06  1.11000994e-06 -3.00842966e-06 -7.86259248e-06 -7.14061027e-06
 -5.83747092e-06 -5.29025216e-03 -6.87439583e-04 -1.19545363e-03  2.97838657e-03
 -1.84517629e-06 -5.66157966e-05 -2.90307079e-06 -1.66348994e-05  1.01071220e-07
 -2.39788611e-05  1.41427884e-04 -1.02076855e-04  1.31787144e-04 -3.66569659e-06
  6.24042115e-05  5.06663630e-06  5.33158281e-06  6.25510120e-06 -3.29102354e-05
  3.31922851e-03  7.96630627e-04 -1.12741373e-03  2.52196369e-04  1.74214702e-05
 -2.39786517e-05  2.41377292e-06  3.06402749e-07 -8.94080470e-06 -8.70600479e-05
  1.82198818e-06 -1.93113765e-05 -1.18848735e-05 -2.46551188e-05  1.01266400e-08
 -3.14620686e-05 -2.63165501e-04  7.66924652e-05 -2.64563103e-04  9.36097212e-06
 -1.21115591e-05 -3.66226475e-05 -6.66532528e-06  2.89583311e-05  2.58137676e-06