Generated by Psi4
     FORCE                           RHF                       TESTBAS
Number of atoms                            I               28
Charge                                     I                0
Multiplicity                               I                1
Number of electrons                        I               96
Number of alpha electrons                  I               48
Number of beta electrons                   I               48
Number of basis functions                  I              277
Number of independent functions            I              277
Atomic numbers                             I   N=          28
           6           6           8           6           6           6
           6           6           7           6           6           6
           1           1           1           1           1           1
           1           1           1           1           1           6
           1           1           1           1
Nuclear charges                            R   N=          28
  6.00000000e+00  6.00000000e+00  8.00000000e+00  6.00000000e+00  6.00000000e+00
  6.00000000e+00  6.00000000e+00  6.00000000e+00  7.00000000e+00  6.00000000e+00
  6.00000000e+00  6.00000000e+00  1.00000000e+00  1.00000000e+00  1.00000000e+00
  1.00000000e+00  1.00000000e+00  1.00000000e+00  1.00000000e+00  1.00000000e+00
  1.00000000e+00  1.00000000e+00  1.00000000e+00  6.00000000e+00  1.00000000e+00
  1.00000000e+00  1.00000000e+00  1.00000000e+00
Current cartesian coordinates              R   N=          84
 -5.94262953e+00 -3.94091772e-01  2.08707168e+00 -4.30301906e+00  1.82314771e+00
  2.91725790e+00 -1.67268056e+00  1.21764353e+00  2.75080413e+00 -9.82165016e-01
 -5.99626081e-01  8.43785793e-01  3.47381410e+00 -2.12048008e+00  4.95564969e-03
  1.75113560e+00 -1.16597782e-01  1.42289030e-01  5.98439984e+00 -1.70115571e+00
 -7.03353158e-01  6.80629675e+00  7.42977278e-01 -1.26828635e+00 -5.35705748e+00
 -1.19893408e+00 -5.12203587e-01 -2.81768353e+00 -4.73067527e-01 -1.42309456e+00
  2.59822329e+00  2.33285209e+00 -4.09318155e-01  5.10522534e+00  2.76054557e+00
 -1.11204816e+00  5.73605658e+00  4.67147538e+00 -1.52766215e+00  8.75968056e+00
  1.07774018e+00 -1.80962948e+00 -4.65571436e+00  2.32202611e+00  4.89608499e+00
 -4.71037285e+00  3.49856425e+00  1.74920234e+00  2.85015915e+00 -4.02601781e+00
  4.60998053e-01 -5.63819631e+00 -1.98246505e+00  3.38978000e+00 -7.94647441e+00
  1.15237174e-01  2.21927273e+00 -1.12855862e+00 -2.51295226e+00  1.65153611e+00
  1.29279656e+00  3.90860066e+00 -2.47510862e-01  7.29651914e+00 -3.27946254e+00
 -7.96214713e-01 -6.68619365e+00 -5.57508195e-01 -1.74087248e+00 -2.07300654e+00
 -2.20826518e+00 -3.61241547e+00 -2.77476686e+00  1.49982288e+00 -2.10937918e+00
 -1.89068917e+00 -4.16643539e+00 -2.96239877e+00 -2.91344022e-01 -1.61688723e+00
 -4.48148927e+00 -3.54600955e+00 -2.16876866e+00 -5.07038686e+00
Integer atomic weights                     I   N=          28
          12          12          15          12          12          12
          12          12          14          12          12          12
           1           1           1           1           1           1
           1           1           1           1           1          12
           1           1           1           1
Real atomic weights                        R   N=          28
  1.20000000e+01  1.20000000e+01  1.59949146e+01  1.20000000e+01  1.20000000e+01
  1.20000000e+01  1.20000000e+01  1.20000000e+01  1.40030740e+01  1.20000000e+01
  1.20000000e+01  1.20000000e+01  1.00782503e+00  1.00782503e+00  1.00782503e+00
  1.00782503e+00  1.00782503e+00  1.00782503e+00  1.00782503e+00  1.00782503e+00
  1.00782503e+00  1.00782503e+00  1.00782503e+00  1.20000000e+01  1.00782503e+00
  1.00782503e+00  1.00782503e+00  1.00782503e+00
Number of primitive shells                 I              281
Number of contracted shells                I              134
Pure/Cartesian d shells                    I                1
Pure/Cartesian f shells                    I                1
Highest angular momentum                   I                2
Largest degree of contraction              I                6
Shell types                                I   N=         134
           0           0           1           0           1           2
           0           1           0           0           1           0
           1           2           0           1           0           0
           1           0           1           2           0           1
           0           0           1           0           1           2
           0           1           0           0           1           0
           1           2           0           1           0           0
           1           0           1           2           0           1
           0           0           1           0           1           2
           0           1           0           0           1           0
           1           2           0           1           0           0
           1           0           1           2           0           1
           0           0           1           0           1           2
           0           1           0           0           1           0
           1           2           0           1           0           0
           1           0           1           2           0           1
           0           0           0           0           0           0
           0           0           0           0           0           0
           0           0           0           0           0           0
           0           0           0           0           0           0
           1           0           1           2           0           1
           0           0           0           0           0           0
           0           0
Number of primitives per shell             I   N=         134
           6           3           3           1           1           1
           1           1           6           3           3           1
           1           1           1           1           6           3
           3           1           1           1           1           1
           6           3           3           1           1           1
           1           1           6           3           3           1
           1           1           1           1           6           3
           3           1           1           1           1           1
           6           3           3           1           1           1
           1           1           6           3           3           1
           1           1           1           1           6           3
           3           1           1           1           1           1
           6           3           3           1           1           1
           1           1           6           3           3           1
           1           1           1           1           6           3
           3           1           1           1           1           1
           3           1           3           1           3           1
           3           1           3           1           3           1
           3           1           3           1           3           1
           3           1           3           1           6           3
           3           1           1           1           1           1
           3           1           3           1           3           1
           3           1
Shell to atom map                          I   N=         134
           1           1           1           1           1           1
           1           1           2           2           2           2
           2           2           2           2           3           3
           3           3           3           3           3           3
           4           4           4           4           4           4
           4           4           5           5           5           5
           5           5           5           5           6           6
           6           6           6           6           6           6
           7           7           7           7           7           7
           7           7           8           8           8           8
           8           8           8           8           9           9
           9           9           9           9           9           9
          10          10          10          10          10          10
          10          10          11          11          11          11
          11          11          11          11          12          12
          12          12          12          12          12          12
          13          13          14          14          15          15
          16          16          17          17          18          18
          19          19          20          20          21          21
          22          22          23          23          24          24
          24          24          24          24          24          24
          25          25          26          26          27          27
          28          28
Primitive exponents                        R   N=         281
  3.04752490e+03  4.57369510e+02  1.03948690e+02  2.92101550e+01  9.28666300e+00
  3.16392700e+00  7.86827240e+00  1.88128850e+00  5.44249300e-01  7.86827240e+00
  1.88128850e+00  5.44249300e-01  1.68714400e-01  1.68714400e-01  8.00000000e-01
  4.38000000e-02  4.38000000e-02  3.04752490e+03  4.57369510e+02  1.03948690e+02
  2.92101550e+01  9.28666300e+00  3.16392700e+00  7.86827240e+00  1.88128850e+00
  5.44249300e-01  7.86827240e+00  1.88128850e+00  5.44249300e-01  1.68714400e-01
  1.68714400e-01  8.00000000e-01  4.38000000e-02  4.38000000e-02  5.48467170e+03
  8.25234950e+02  1.88046960e+02  5.29645000e+01  1.68975700e+01  5.79963530e+00
  1.55396160e+01  3.59993360e+00  1.01376180e+00  1.55396160e+01  3.59993360e+00
  1.01376180e+00  2.70005800e-01  2.70005800e-01  8.00000000e-01  8.45000000e-02
  8.45000000e-02  3.04752490e+03  4.57369510e+02  1.03948690e+02  2.92101550e+01
  9.28666300e+00  3.16392700e+00  7.86827240e+00  1.88128850e+00  5.44249300e-01
  7.86827240e+00  1.88128850e+00  5.44249300e-01  1.68714400e-01  1.68714400e-01
  8.00000000e-01  4.38000000e-02  4.38000000e-02  3.04752490e+03  4.57369510e+02
  1.03948690e+02  2.92101550e+01  9.28666300e+00  3.16392700e+00  7.86827240e+00
  1.88128850e+00  5.44249300e-01  7.86827240e+00  1.88128850e+00  5.44249300e-01
  1.68714400e-01  1.68714400e-01  8.00000000e-01  4.38000000e-02  4.38000000e-02
  3.04752490e+03  4.57369510e+02  1.03948690e+02  2.92101550e+01  9.28666300e+00
  3.16392700e+00  7.86827240e+00  1.88128850e+00  5.44249300e-01  7.86827240e+00
  1.88128850e+00  5.44249300e-01  1.68714400e-01  1.68714400e-01  8.00000000e-01
  4.38000000e-02  4.38000000e-02  3.04752490e+03  4.57369510e+02  1.03948690e+02
  2.92101550e+01  9.28666300e+00  3.16392700e+00  7.86827240e+00  1.88128850e+00
  5.44249300e-01  7.86827240e+00  1.88128850e+00  5.44249300e-01  1.68714400e-01
  1.68714400e-01  8.00000000e-01  4.38000000e-02  4.38000000e-02  3.04752490e+03
  4.57369510e+02  1.03948690e+02  2.92101550e+01  9.28666300e+00  3.16392700e+00
  7.86827240e+00  1.88128850e+00  5.44249300e-01  7.86827240e+00  1.88128850e+00
  5.44249300e-01  1.68714400e-01  1.68714400e-01  8.00000000e-01  4.38000000e-02
  4.38000000e-02  4.17351100e+03  6.27457900e+02  1.42902100e+02  4.02343300e+01
  1.28202100e+01  4.39043700e+00  1.16263580e+01  2.71628000e+00  7.72218000e-01
  1.16263580e+01  2.71628000e+00  7.72218000e-01  2.12031300e-01  2.12031300e-01
  8.00000000e-01  6.39000000e-02  6.39000000e-02  3.04752490e+03  4.57369510e+02
  1.03948690e+02  2.92101550e+01  9.28666300e+00  3.16392700e+00  7.86827240e+00
  1.88128850e+00  5.44249300e-01  7.86827240e+00  1.88128850e+00  5.44249300e-01
  1.68714400e-01  1.68714400e-01  8.00000000e-01  4.38000000e-02  4.38000000e-02
  3.04752490e+03  4.57369510e+02  1.03948690e+02  2.92101550e+01  9.28666300e+00
  3.16392700e+00  7.86827240e+00  1.88128850e+00  5.44249300e-01  7.86827240e+00
  1.88128850e+00  5.44249300e-01  1.68714400e-01  1.68714400e-01  8.00000000e-01
  4.38000000e-02  4.38000000e-02  3.04752490e+03  4.57369510e+02  1.03948690e+02
  2.92101550e+01  9.28666300e+00  3.16392700e+00  7.86827240e+00  1.88128850e+00
  5.44249300e-01  7.86827240e+00  1.88128850e+00  5.44249300e-01  1.68714400e-01
  1.68714400e-01  8.00000000e-01  4.38000000e-02  4.38000000e-02  1.87311370e+01
  2.82539370e+00  6.40121700e-01  1.61277800e-01  1.87311370e+01  2.82539370e+00
  6.40121700e-01  1.61277800e-01  1.87311370e+01  2.82539370e+00  6.40121700e-01
  1.61277800e-01  1.87311370e+01  2.82539370e+00  6.40121700e-01  1.61277800e-01
  1.87311370e+01  2.82539370e+00  6.40121700e-01  1.61277800e-01  1.87311370e+01
  2.82539370e+00  6.40121700e-01  1.61277800e-01  1.87311370e+01  2.82539370e+00
  6.40121700e-01  1.61277800e-01  1.87311370e+01  2.82539370e+00  6.40121700e-01
  1.61277800e-01  1.87311370e+01  2.82539370e+00  6.40121700e-01  1.61277800e-01
  1.87311370e+01  2.82539370e+00  6.40121700e-01  1.61277800e-01  1.87311370e+01
  2.82539370e+00  6.40121700e-01  1.61277800e-01  3.04752490e+03  4.57369510e+02
  1.03948690e+02  2.92101550e+01  9.28666300e+00  3.16392700e+00  7.86827240e+00
  1.88128850e+00  5.44249300e-01  7.86827240e+00  1.88128850e+00  5.44249300e-01
  1.68714400e-01  1.68714400e-01  8.00000000e-01  4.38000000e-02  4.38000000e-02
  1.87311370e+01  2.82539370e+00  6.40121700e-01  1.61277800e-01  1.87311370e+01
  2.82539370e+00  6.40121700e-01  1.61277800e-01  1.87311370e+01  2.82539370e+00
  6.40121700e-01  1.61277800e-01  1.87311370e+01  2.82539370e+00  6.40121700e-01
  1.61277800e-01
Contraction coefficients                   R   N=         281
  1.83470016e-03  1.40373012e-02  6.88426061e-02  2.32184421e-01  4.67941342e-01
  3.62312032e-01 -1.19332409e-01 -1.60854212e-01  1.14345648e+00  6.89990956e-02
  3.16423980e-01  7.44308252e-01  1.00000000e+00  1.00000000e+00  1.00000000e+00
  1.00000000e+00  1.00000000e+00  1.83470016e-03  1.40373012e-02  6.88426061e-02
  2.32184421e-01  4.67941342e-01  3.62312032e-01 -1.19332409e-01 -1.60854212e-01
  1.14345648e+00  6.89990956e-02  3.16423980e-01  7.44308252e-01  1.00000000e+00
  1.00000000e+00  1.00000000e+00  1.00000000e+00  1.00000000e+00  1.83109981e-03
  1.39500985e-02  6.84450927e-02  2.32714275e-01  4.70192950e-01  3.58520862e-01
 -1.10777504e-01 -1.48026305e-01  1.13076704e+00  7.08742995e-02  3.39752798e-01
  7.27158595e-01  1.00000000e+00  1.00000000e+00  1.00000000e+00  1.00000000e+00
  1.00000000e+00  1.83470016e-03  1.40373012e-02  6.88426061e-02  2.32184421e-01
  4.67941342e-01  3.62312032e-01 -1.19332409e-01 -1.60854212e-01  1.14345648e+00
  6.89990956e-02  3.16423980e-01  7.44308252e-01  1.00000000e+00  1.00000000e+00
  1.00000000e+00  1.00000000e+00  1.00000000e+00  1.83470016e-03  1.40373012e-02
  6.88426061e-02  2.32184421e-01  4.67941342e-01  3.62312032e-01 -1.19332409e-01
 -1.60854212e-01  1.14345648e+00  6.89990956e-02  3.16423980e-01  7.44308252e-01
  1.00000000e+00  1.00000000e+00  1.00000000e+00  1.00000000e+00  1.00000000e+00
  1.83470016e-03  1.40373012e-02  6.88426061e-02  2.32184421e-01  4.67941342e-01
  3.62312032e-01 -1.19332409e-01 -1.60854212e-01  1.14345648e+00  6.89990956e-02
  3.16423980e-01  7.44308252e-01  1.00000000e+00  1.00000000e+00  1.00000000e+00
  1.00000000e+00  1.00000000e+00  1.83470016e-03  1.40373012e-02  6.88426061e-02
  2.32184421e-01  4.67941342e-01  3.62312032e-01 -1.19332409e-01 -1.60854212e-01
  1.14345648e+00  6.89990956e-02  3.16423980e-01  7.44308252e-01  1.00000000e+00
  1.00000000e+00  1.00000000e+00  1.00000000e+00  1.00000000e+00  1.83470016e-03
  1.40373012e-02  6.88426061e-02  2.32184421e-01  4.67941342e-01  3.62312032e-01
 -1.19332409e-01 -1.60854212e-01  1.14345648e+00  6.89990956e-02  3.16423980e-01
  7.44308252e-01  1.00000000e+00  1.00000000e+00  1.00000000e+00  1.00000000e+00
  1.00000000e+00  1.83479944e-03  1.39949958e-02  6.85869792e-02  2.32240930e-01
  4.69069858e-01  3.60454891e-01 -1.14961023e-01 -1.69118034e-01  1.14585223e+00
  6.75800232e-02  3.23907111e-01  7.40895255e-01  1.00000000e+00  1.00000000e+00
  1.00000000e+00  1.00000000e+00  1.00000000e+00  1.83470016e-03  1.40373012e-02
  6.88426061e-02  2.32184421e-01  4.67941342e-01  3.62312032e-01 -1.19332409e-01
 -1.60854212e-01  1.14345648e+00  6.89990956e-02  3.16423980e-01  7.44308252e-01
  1.00000000e+00  1.00000000e+00  1.00000000e+00  1.00000000e+00  1.00000000e+00
  1.83470016e-03  1.40373012e-02  6.88426061e-02  2.32184421e-01  4.67941342e-01
  3.62312032e-01 -1.19332409e-01 -1.60854212e-01  1.14345648e+00  6.89990956e-02
  3.16423980e-01  7.44308252e-01  1.00000000e+00  1.00000000e+00  1.00000000e+00
  1.00000000e+00  1.00000000e+00  1.83470016e-03  1.40373012e-02  6.88426061e-02
  2.32184421e-01  4.67941342e-01  3.62312032e-01 -1.19332409e-01 -1.60854212e-01
  1.14345648e+00  6.89990956e-02  3.16423980e-01  7.44308252e-01  1.00000000e+00
  1.00000000e+00  1.00000000e+00  1.00000000e+00  1.00000000e+00  3.34945995e-02
  2.34726947e-01  8.13757318e-01  1.00000000e+00  3.34945995e-02  2.34726947e-01
  8.13757318e-01  1.00000000e+00  3.34945995e-02  2.34726947e-01  8.13757318e-01
  1.00000000e+00  3.34945995e-02  2.34726947e-01  8.13757318e-01  1.00000000e+00
  3.34945995e-02  2.34726947e-01  8.13757318e-01  1.00000000e+00  3.34945995e-02
  2.34726947e-01  8.13757318e-01  1.00000000e+00  3.34945995e-02  2.34726947e-01
  8.13757318e-01  1.00000000e+00  3.34945995e-02  2.34726947e-01  8.13757318e-01
  1.00000000e+00  3.34945995e-02  2.34726947e-01  8.13757318e-01  1.00000000e+00
  3.34945995e-02  2.34726947e-01  8.13757318e-01  1.00000000e+00  3.34945995e-02
  2.34726947e-01  8.13757318e-01  1.00000000e+00  1.83470016e-03  1.40373012e-02
  6.88426061e-02  2.32184421e-01  4.67941342e-01  3.62312032e-01 -1.19332409e-01
 -1.60854212e-01  1.14345648e+00  6.89990956e-02  3.16423980e-01  7.44308252e-01
  1.00000000e+00  1.00000000e+00  1.00000000e+00  1.00000000e+00  1.00000000e+00
  3.34945995e-02  2.34726947e-01  8.13757318e-01  1.00000000e+00  3.34945995e-02
  2.34726947e-01  8.13757318e-01  1.00000000e+00  3.34945995e-02  2.34726947e-01
  8.13757318e-01  1.00000000e+00  3.34945995e-02  2.34726947e-01  8.13757318e-01
  1.00000000e+00
Coordinates of each shell                  R   N=         402
 -5.94262953e+00 -3.94091772e-01  2.08707168e+00 -5.94262953e+00 -3.94091772e-01
  2.08707168e+00 -5.94262953e+00 -3.94091772e-01  2.08707168e+00 -5.94262953e+00
 -3.94091772e-01  2.08707168e+00 -5.94262953e+00 -3.94091772e-01  2.08707168e+00
 -5.94262953e+00 -3.94091772e-01  2.08707168e+00 -5.94262953e+00 -3.94091772e-01
  2.08707168e+00 -5.94262953e+00 -3.94091772e-01  2.08707168e+00 -4.30301906e+00
  1.82314771e+00  2.91725790e+00 -4.30301906e+00  1.82314771e+00  2.91725790e+00
 -4.30301906e+00  1.82314771e+00  2.91725790e+00 -4.30301906e+00  1.82314771e+00
  2.91725790e+00 -4.30301906e+00  1.82314771e+00  2.91725790e+00 -4.30301906e+00
  1.82314771e+00  2.91725790e+00 -4.30301906e+00  1.82314771e+00  2.91725790e+00
 -4.30301906e+00  1.82314771e+00  2.91725790e+00 -1.67268056e+00  1.21764353e+00
  2.75080413e+00 -1.67268056e+00  1.21764353e+00  2.75080413e+00 -1.67268056e+00
  1.21764353e+00  2.75080413e+00 -1.67268056e+00  1.21764353e+00  2.75080413e+00
 -1.67268056e+00  1.21764353e+00  2.75080413e+00 -1.67268056e+00  1.21764353e+00
  2.75080413e+00 -1.67268056e+00  1.21764353e+00  2.75080413e+00 -1.67268056e+00
  1.21764353e+00  2.75080413e+00 -9.82165016e-01 -5.99626081e-01  8.43785793e-01
 -9.82165016e-01 -5.99626081e-01  8.43785793e-01 -9.82165016e-01 -5.99626081e-01
  8.43785793e-01 -9.82165016e-01 -5.99626081e-01  8.43785793e-01 -9.82165016e-01
 -5.99626081e-01  8.43785793e-01 -9.82165016e-01 -5.99626081e-01  8.43785793e-01
 -9.82165016e-01 -5.99626081e-01  8.43785793e-01 -9.82165016e-01 -5.99626081e-01
  8.43785793e-01  3.47381410e+00 -2.12048008e+00  4.95564969e-03  3.47381410e+00
 -2.12048008e+00  4.95564969e-03  3.47381410e+00 -2.12048008e+00  4.95564969e-03
  3.47381410e+00 -2.12048008e+00  4.95564969e-03  3.47381410e+00 -2.12048008e+00
  4.95564969e-03  3.47381410e+00 -2.12048008e+00  4.95564969e-03  3.47381410e+00
 -2.12048008e+00  4.95564969e-03  3.47381410e+00 -2.12048008e+00  4.95564969e-03
  1.75113560e+00 -1.16597782e-01  1.42289030e-01  1.75113560e+00 -1.16597782e-01
  1.42289030e-01  1.75113560e+00 -1.16597782e-01  1.42289030e-01  1.75113560e+00
 -1.16597782e-01  1.42289030e-01  1.75113560e+00 -1.16597782e-01  1.42289030e-01
  1.75113560e+00 -1.16597782e-01  1.42289030e-01  1.75113560e+00 -1.16597782e-01
  1.42289030e-01  1.75113560e+00 -1.16597782e-01  1.42289030e-01  5.98439984e+00
 -1.70115571e+00 -7.03353158e-01  5.98439984e+00 -1.70115571e+00 -7.03353158e-01
  5.98439984e+00 -1.70115571e+00 -7.03353158e-01  5.98439984e+00 -1.70115571e+00
 -7.03353158e-01  5.98439984e+00 -1.70115571e+00 -7.03353158e-01  5.98439984e+00
 -1.70115571e+00 -7.03353158e-01  5.98439984e+00 -1.70115571e+00 -7.03353158e-01
  5.98439984e+00 -1.70115571e+00 -7.03353158e-01  6.80629675e+00  7.42977278e-01
 -1.26828635e+00  6.80629675e+00  7.42977278e-01 -1.26828635e+00  6.80629675e+00
  7.42977278e-01 -1.26828635e+00  6.80629675e+00  7.42977278e-01 -1.26828635e+00
  6.80629675e+00  7.42977278e-01 -1.26828635e+00  6.80629675e+00  7.42977278e-01
 -1.26828635e+00  6.80629675e+00  7.42977278e-01 -1.26828635e+00  6.80629675e+00
  7.42977278e-01 -1.26828635e+00 -5.35705748e+00 -1.19893408e+00 -5.12203587e-01
 -5.35705748e+00 -1.19893408e+00 -5.12203587e-01 -5.35705748e+00 -1.19893408e+00
 -5.12203587e-01 -5.35705748e+00 -1.19893408e+00 -5.12203587e-01 -5.35705748e+00
 -1.19893408e+00 -5.12203587e-01 -5.35705748e+00 -1.19893408e+00 -5.12203587e-01
 -5.35705748e+00 -1.19893408e+00 -5.12203587e-01 -5.35705748e+00 -1.19893408e+00
 -5.12203587e-01 -2.81768353e+00 -4.73067527e-01 -1.42309456e+00 -2.81768353e+00
 -4.73067527e-01 -1.42309456e+00 -2.81768353e+00 -4.73067527e-01 -1.42309456e+00
 -2.81768353e+00 -4.73067527e-01 -1.42309456e+00 -2.81768353e+00 -4.73067527e-01
 -1.42309456e+00 -2.81768353e+00 -4.73067527e-01 -1.42309456e+00 -2.81768353e+00
 -4.73067527e-01 -1.42309456e+00 -2.81768353e+00 -4.73067527e-01 -1.42309456e+00
  2.59822329e+00  2.33285209e+00 -4.09318155e-01  2.59822329e+00  2.33285209e+00
 -4.09318155e-01  2.59822329e+00  2.33285209e+00 -4.09318155e-01  2.59822329e+00
  2.33285209e+00 -4.09318155e-01  2.59822329e+00  2.33285209e+00 -4.09318155e-01
  2.59822329e+00  2.33285209e+00 -4.09318155e-01  2.59822329e+00  2.33285209e+00
 -4.09318155e-01  2.59822329e+00  2.33285209e+00 -4.09318155e-01  5.10522534e+00
  2.76054557e+00 -1.11204816e+00  5.10522534e+00  2.76054557e+00 -1.11204816e+00
  5.10522534e+00  2.76054557e+00 -1.11204816e+00  5.10522534e+00  2.76054557e+00
 -1.11204816e+00  5.10522534e+00  2.76054557e+00 -1.11204816e+00  5.10522534e+00
  2.76054557e+00 -1.11204816e+00  5.10522534e+00  2.76054557e+00 -1.11204816e+00
  5.10522534e+00  2.76054557e+00 -1.11204816e+00  5.73605658e+00  4.67147538e+00
 -1.52766215e+00  5.73605658e+00  4.67147538e+00 -1.52766215e+00  8.75968056e+00
  1.07774018e+00 -1.80962948e+00  8.75968056e+00  1.07774018e+00 -1.80962948e+00
 -4.65571436e+00  2.32202611e+00  4.89608499e+00 -4.65571436e+00  2.32202611e+00
  4.89608499e+00 -4.71037285e+00  3.49856425e+00  1.74920234e+00 -4.71037285e+00
  3.49856425e+00  1.74920234e+00  2.85015915e+00 -4.02601781e+00  4.60998053e-01
  2.85015915e+00 -4.02601781e+00  4.60998053e-01 -5.63819631e+00 -1.98246505e+00
  3.38978000e+00 -5.63819631e+00 -1.98246505e+00  3.38978000e+00 -7.94647441e+00
  1.15237174e-01  2.21927273e+00 -7.94647441e+00  1.15237174e-01  2.21927273e+00
 -1.12855862e+00 -2.51295226e+00  1.65153611e+00 -1.12855862e+00 -2.51295226e+00
  1.65153611e+00  1.29279656e+00  3.90860066e+00 -2.47510862e-01  1.29279656e+00
  3.90860066e+00 -2.47510862e-01  7.29651914e+00 -3.27946254e+00 -7.96214713e-01
  7.29651914e+00 -3.27946254e+00 -7.96214713e-01 -6.68619365e+00 -5.57508195e-01
 -1.74087248e+00 -6.68619365e+00 -5.57508195e-01 -1.74087248e+00 -2.07300654e+00
 -2.20826518e+00 -3.61241547e+00 -2.07300654e+00 -2.20826518e+00 -3.61241547e+00
 -2.07300654e+00 -2.20826518e+00 -3.61241547e+00 -2.07300654e+00 -2.20826518e+00
 -3.61241547e+00 -2.07300654e+00 -2.20826518e+00 -3.61241547e+00 -2.07300654e+00
 -2.20826518e+00 -3.61241547e+00 -2.07300654e+00 -2.20826518e+00 -3.61241547e+00
 -2.07300654e+00 -2.20826518e+00 -3.61241547e+00 -2.77476686e+00  1.49982288e+00
 -2.10937918e+00 -2.77476686e+00  1.49982288e+00 -2.10937918e+00 -1.89068917e+00
 -4.16643539e+00 -2.96239877e+00 -1.89068917e+00 -4.16643539e+00 -2.96239877e+00
 -2.91344022e-01 -1.61688723e+00 -4.48148927e+00 -2.91344022e-01 -1.61688723e+00
 -4.48148927e+00 -3.54600955e+00 -2.16876866e+00 -5.07038686e+00 -3.54600955e+00
 -2.16876866e+00 -5.07038686e+00
Total Energy                               R     -5.581731027892104e+02
Alpha Orbital Energies                     R   N=         277
 -1.91536439e+01 -1.43295073e+01 -1.02449051e+01 -1.02357976e+01 -1.02241102e+01
 -1.02179252e+01 -1.01995864e+01 -1.01960344e+01 -1.01955630e+01 -1.01950738e+01
 -1.01948042e+01 -1.01924334e+01 -1.01776858e+01 -1.03483691e+00 -9.08302550e-01
 -8.59572477e-01 -7.98652496e-01 -7.49021552e-01 -7.47065046e-01 -7.15563496e-01
 -6.79363596e-01 -6.31707654e-01 -6.10423771e-01 -5.99797048e-01 -5.48747567e-01
 -5.29173069e-01 -5.07403852e-01 -4.93487129e-01 -4.80835200e-01 -4.58244137e-01
 -4.51089036e-01 -4.38633816e-01 -4.26100617e-01 -4.22071232e-01 -4.07752975e-01
 -4.04101029e-01 -3.92876554e-01 -3.80337039e-01 -3.67701747e-01 -3.65066821e-01
 -3.57276739e-01 -3.48275473e-01 -3.43139083e-01 -3.04111487e-01 -2.64681567e-01
 -2.54657179e-01 -2.44344860e-01 -2.27400692e-01 -1.55320134e-02 -1.22836814e-02
 -2.14439755e-03  8.14667177e-03  1.43662157e-02  1.88155563e-02  3.02266963e-02
  3.52259245e-02  4.11932690e-02  4.90186342e-02  5.14724183e-02  5.33858538e-02
  6.17980977e-02  6.49514823e-02  7.27220929e-02  8.12402414e-02  8.71792382e-02
  8.83774656e-02  9.41586213e-02  1.00895682e-01  1.09481304e-01  1.12014987e-01
  1.21177898e-01  1.25360522e-01  1.26677671e-01  1.32425791e-01  1.38764785e-01
  1.46943629e-01  1.50983656e-01  1.53224500e-01  1.60121469e-01  1.64421758e-01
  1.65218856e-01  1.69300072e-01  1.71968683e-01  1.81333995e-01  1.83673814e-01
  1.89107669e-01  1.92788955e-01  1.99389588e-01  2.04379116e-01  2.09531050e-01
  2.13291575e-01  2.14354176e-01  2.19023179e-01  2.22085170e-01  2.28178328e-01
  2.34030822e-01  2.34376787e-01  2.38737777e-01  2.45769634e-01  2.49999295e-01
  2.54071090e-01  2.58321014e-01  2.66414951e-01  2.70392632e-01  2.73364631e-01
  2.81050171e-01  2.84322243e-01  2.90537860e-01  2.95595649e-01  3.01434111e-01
  3.11040996e-01  3.13051439e-01  3.22538628e-01  3.24125121e-01  3.34491075e-01
  3.46864836e-01  3.52293789e-01  3.54262760e-01  3.63791577e-01  3.72521018e-01
  3.78270890e-01  3.85726483e-01  3.92018617e-01  3.99106071e-01  4.12698952e-01
  4.17313707e-01  4.27097333e-01  4.53587706e-01  4.62364406e-01  4.80303933e-01
  5.82603816e-01  6.05384395e-01  6.45518099e-01  6.47042522e-01  6.69120535e-01
  6.79946917e-01  6.91925541e-01  6.95778262e-01  7.01093240e-01  7.14741833e-01
  7.18879288e-01  7.30336511e-01  7.31505732e-01  7.48352752e-01  7.49553611e-01
  7.52714218e-01  7.65299456e-01  7.71229241e-01  7.90357277e-01  8.08118902e-01
  8.14517947e-01  8.27379456e-01  8.41924291e-01  8.57502743e-01  8.82420742e-01
  8.93272115e-01  9.03889980e-01  9.30763259e-01  9.41598834e-01  9.44270093e-01
  9.56156498e-01  9.69825408e-01  9.76454866e-01  9.83552299e-01  9.95069037e-01
  1.00169200e+00  1.02807902e+00  1.03039860e+00  1.03813989e+00  1.05424878e+00
  1.06430778e+00  1.07281416e+00  1.09300949e+00  1.09866592e+00  1.12089271e+00
  1.12467063e+00  1.13597681e+00  1.13734982e+00  1.16184429e+00  1.17688981e+00
  1.18707563e+00  1.20576871e+00  1.23334396e+00  1.25335017e+00  1.26174999e+00
  1.27701228e+00  1.28791977e+00  1.30543912e+00  1.37675307e+00  1.39623742e+00
  1.41739838e+00  1.42298909e+00  1.45151947e+00  1.46552528e+00  1.48072530e+00
  1.49148626e+00  1.49633984e+00  1.51165909e+00  1.51726319e+00  1.53565487e+00
  1.56500984e+00  1.57176055e+00  1.59712217e+00  1.64968280e+00  1.66479012e+00
  1.74085299e+00  1.75188342e+00  1.80235972e+00  1.81890529e+00  1.83359014e+00
  1.84126078e+00  1.87625298e+00  1.89877395e+00  1.90328322e+00  1.92138890e+00
  1.92593389e+00  1.95090643e+00  1.97049062e+00  1.97568465e+00  2.00099179e+00
  2.02392916e+00  2.03360938e+00  2.07503250e+00  2.08026950e+00  2.09721698e+00
  2.11819377e+00  2.13369042e+00  2.14787160e+00  2.16818813e+00  2.19057490e+00
  2.19809659e+00  2.22051043e+00  2.24857317e+00  2.25699166e+00  2.28149736e+00
  2.28920220e+00  2.30605357e+00  2.31445978e+00  2.32963200e+00  2.34509015e+00
  2.40753663e+00  2.42599660e+00  2.46020176e+00  2.47212232e+00  2.50433998e+00
  2.57018001e+00  2.61120400e+00  2.63198849e+00  2.64365784e+00  2.65061058e+00
  2.66305155e+00  2.70552147e+00  2.74631404e+00  2.75946564e+00  2.76484454e+00
  2.78102570e+00  2.82129812e+00  2.83453504e+00  2.91275797e+00  2.95882948e+00
  2.96672250e+00  3.06398626e+00  3.10540090e+00  3.40598137e+00  4.14377243e+00
  4.24843684e+00  4.25413056e+00  4.28153001e+00  4.34250913e+00  4.35049654e+00
  4.39113923e+00  4.41217724e+00  4.48514914e+00  4.54013243e+00  4.56501866e+00
  4.72560184e+00  4.82769978e+00
Alpha MO coefficients                      R   N=       76729
 -5.99060027e-06 -8.05582028e-05  1.01774143e-05 -8.63787123e-06  2.68748702e-05
  1.23771998e-04 -1.72887999e-04  3.21731981e-05 -2.98748776e-04  5.55135330e-05