Generated by Psi4
     FORCE                           RHF                       TESTBAS
Number of atoms                            I               29
Charge                                     I                0
Multiplicity                               I                1
Number of electrons                        I              122
Number of alpha electrons                  I               61
Number of beta electrons                   I               61
Number of basis functions                  I              347
Number of independent functions            I              347
Atomic numbers                             I   N=          29
           8           6           6           6           7           6
           7           6           8           8           1           6
           6           6           1           1           1           1
           1           6           6           6           6           1
           1           1           1           1           1
Nuclear charges                            R   N=          29
  8.00000000e+00  6.00000000e+00  6.00000000e+00  6.00000000e+00  7.00000000e+00
  6.00000000e+00  7.00000000e+00  6.00000000e+00  8.00000000e+00  8.00000000e+00
  1.00000000e+00  6.00000000e+00  6.00000000e+00  6.00000000e+00  1.00000000e+00
  1.00000000e+00  1.00000000e+00  1.00000000e+00  1.00000000e+00  6.00000000e+00
  6.00000000e+00  6.00000000e+00  6.00000000e+00  1.00000000e+00  1.00000000e+00
  1.00000000e+00  1.00000000e+00  1.00000000e+00  1.00000000e+00
Current cartesian coordinates              R   N=          87
  4.21258682e+00 -2.59912090e+00 -3.68521319e-01 -4.36004525e-01 -2.93435522e+00
 -3.10624983e+00  8.85233833e-02 -7.71270005e-01 -1.18638862e+00  2.91980407e+00
 -7.04442145e-01 -5.49249134e-01  3.96458011e+00  1.65031155e+00 -4.04600673e-02
  2.89479491e+00  4.00406801e+00 -4.98284158e-01  5.02017316e-01  3.90895866e+00
 -1.56887340e+00 -8.41841121e-01  1.76305570e+00 -2.26887180e+00  3.98757198e+00
  5.97664152e+00 -5.40991814e-02 -2.72376991e+00  1.96078818e+00 -3.57839850e+00
  5.79481436e+00  1.67604196e+00  5.38373856e-01  9.24358923e-01 -2.67159974e+00
 -5.65093484e+00 -1.42811255e+00 -1.26289425e+00  1.29378417e+00 -4.05544432e+00
 -8.82227684e-01  1.31196404e+00 -2.47959255e+00 -2.99725291e+00 -3.40561186e+00
  1.15877600e-01 -4.70049189e+00 -2.18466032e+00  3.66946465e-01 -9.42343937e-01
 -6.64395933e+00  4.30647491e-01 -4.26998052e+00 -6.87162997e+00  2.98237502e+00
 -2.68116700e+00 -5.42708860e+00 -2.67699666e-01 -2.19099431e+00  3.48942012e+00
 -1.69662317e+00 -2.70481929e+00  5.65158617e+00 -4.30343265e+00 -2.31001020e+00
  5.65736857e+00 -5.47582485e+00 -1.40207086e+00  3.47347405e+00 -5.00151259e+00
 -1.77186144e-01 -3.65290628e-01  1.74763042e+00 -2.56123968e+00  3.53289952e+00
 -7.54644326e-01 -3.42307843e+00  7.32950538e+00 -5.41036458e+00 -2.70980439e+00
  7.34040321e+00 -7.50588055e+00 -1.09074050e+00  3.44192286e+00 -2.19021087e-01
  5.59833078e+00 -2.12682757e+00
Integer atomic weights                     I   N=          29
          15          12          12          12          14          12
          14          12          15          15           1          12
          12          12           1           1           1           1
           1          12          12          12          12           1
           1           1           1           1           1
Real atomic weights                        R   N=          29
  1.59949146e+01  1.20000000e+01  1.20000000e+01  1.20000000e+01  1.40030740e+01
  1.20000000e+01  1.40030740e+01  1.20000000e+01  1.59949146e+01  1.59949146e+01
  1.00782503e+00  1.20000000e+01  1.20000000e+01  1.20000000e+01  1.00782503e+00
  1.00782503e+00  1.00782503e+00  1.00782503e+00  1.00782503e+00  1.20000000e+01
  1.20000000e+01  1.20000000e+01  1.20000000e+01  1.00782503e+00  1.00782503e+00
  1.00782503e+00  1.00782503e+00  1.00782503e+00  1.00782503e+00
Number of primitive shells                 I              337
Number of contracted shells                I              160
Pure/Cartesian d shells                    I                1
Pure/Cartesian f shells                    I                1
Highest angular momentum                   I                2
Largest degree of contraction              I                6
Shell types                                I   N=         160
           0           0           1           0           1           2
           0           1           0           0           1           0
           1           2           0           1           0           0
           1           0           1           2           0           1
           0           0           1           0           1           2
           0           1           0           0           1           0
           1           2           0           1           0           0
           1           0           1           2           0           1
           0           0           1           0           1           2
           0           1           0           0           1           0
           1           2           0           1           0           0
           1           0           1           2           0           1
           0           0           1           0           1           2
           0           1           0           0           0           0
           1           0           1           2           0           1
           0           0           1           0           1           2
           0           1           0           0           1           0
           1           2           0           1           0           0
           0           0           0           0           0           0
           0           0           0           0           1           0
           1           2           0           1           0           0
           1           0           1           2           0           1
           0           0           1           0           1           2
           0           1           0           0           1           0
           1           2           0           1           0           0
           0           0           0           0           0           0
           0           0           0           0
Number of primitives per shell             I   N=         160
           6           3           3           1           1           1
           1           1           6           3           3           1
           1           1           1           1           6           3
           3           1           1           1           1           1
           6           3           3           1           1           1
           1           1           6           3           3           1
           1           1           1           1           6           3
           3           1           1           1           1           1
           6           3           3           1           1           1
           1           1           6           3           3           1
           1           1           1           1           6           3
           3           1           1           1           1           1
           6           3           3           1           1           1
           1           1           3           1           6           3
           3           1           1           1           1           1
           6           3           3           1           1           1
           1           1           6           3           3           1
           1           1           1           1           3           1
           3           1           3           1           3           1
           3           1           6           3           3           1
           1           1           1           1           6           3
           3           1           1           1           1           1
           6           3           3           1           1           1
           1           1           6           3           3           1
           1           1           1           1           3           1
           3           1           3           1           3           1
           3           1           3           1
Shell to atom map                          I   N=         160
           1           1           1           1           1           1
           1           1           2           2           2           2
           2           2           2           2           3           3
           3           3           3           3           3           3
           4           4           4           4           4           4
           4           4           5           5           5           5
           5           5           5           5           6           6
           6           6           6           6           6           6
           7           7           7           7           7           7
           7           7           8           8           8           8
           8           8           8           8           9           9
           9           9           9           9           9           9
          10          10          10          10          10          10
          10          10          11          11          12          12
          12          12          12          12          12          12
          13          13          13          13          13          13
          13          13          14          14          14          14
          14          14          14          14          15          15
          16          16          17          17          18          18
          19          19          20          20          20          20
          20          20          20          20          21          21
          21          21          21          21          21          21
          22          22          22          22          22          22
          22          22          23          23          23          23
          23          23          23          23          24          24
          25          25          26          26          27          27
          28          28          29          29
Primitive exponents                        R   N=         337
  5.48467170e+03  8.25234950e+02  1.88046960e+02  5.29645000e+01  1.68975700e+01
  5.79963530e+00  1.55396160e+01  3.59993360e+00  1.01376180e+00  1.55396160e+01
  3.59993360e+00  1.01376180e+00  2.70005800e-01  2.70005800e-01  8.00000000e-01
  8.45000000e-02  8.45000000e-02  3.04752490e+03  4.57369510e+02  1.03948690e+02
  2.92101550e+01  9.28666300e+00  3.16392700e+00  7.86827240e+00  1.88128850e+00
  5.44249300e-01  7.86827240e+00  1.88128850e+00  5.44249300e-01  1.68714400e-01
  1.68714400e-01  8.00000000e-01  4.38000000e-02  4.38000000e-02  3.04752490e+03
  4.57369510e+02  1.03948690e+02  2.92101550e+01  9.28666300e+00  3.16392700e+00
  7.86827240e+00  1.88128850e+00  5.44249300e-01  7.86827240e+00  1.88128850e+00
  5.44249300e-01  1.68714400e-01  1.68714400e-01  8.00000000e-01  4.38000000e-02
  4.38000000e-02  3.04752490e+03  4.57369510e+02  1.03948690e+02  2.92101550e+01
  9.28666300e+00  3.16392700e+00  7.86827240e+00  1.88128850e+00  5.44249300e-01
  7.86827240e+00  1.88128850e+00  5.44249300e-01  1.68714400e-01  1.68714400e-01
  8.00000000e-01  4.38000000e-02  4.38000000e-02  4.17351100e+03  6.27457900e+02
  1.42902100e+02  4.02343300e+01  1.28202100e+01  4.39043700e+00  1.16263580e+01
  2.71628000e+00  7.72218000e-01  1.16263580e+01  2.71628000e+00  7.72218000e-01
  2.12031300e-01  2.12031300e-01  8.00000000e-01  6.39000000e-02  6.39000000e-02
  3.04752490e+03  4.57369510e+02  1.03948690e+02  2.92101550e+01  9.28666300e+00
  3.16392700e+00  7.86827240e+00  1.88128850e+00  5.44249300e-01  7.86827240e+00
  1.88128850e+00  5.44249300e-01  1.68714400e-01  1.68714400e-01  8.00000000e-01
  4.38000000e-02  4.38000000e-02  4.17351100e+03  6.27457900e+02  1.42902100e+02
  4.02343300e+01  1.28202100e+01  4.39043700e+00  1.16263580e+01  2.71628000e+00
  7.72218000e-01  1.16263580e+01  2.71628000e+00  7.72218000e-01  2.12031300e-01
  2.12031300e-01  8.00000000e-01  6.39000000e-02  6.39000000e-02  3.04752490e+03
  4.57369510e+02  1.03948690e+02  2.92101550e+01  9.28666300e+00  3.16392700e+00
  7.86827240e+00  1.88128850e+00  5.44249300e-01  7.86827240e+00  1.88128850e+00
  5.44249300e-01  1.68714400e-01  1.68714400e-01  8.00000000e-01  4.38000000e-02
  4.38000000e-02  5.48467170e+03  8.25234950e+02  1.88046960e+02  5.29645000e+01
  1.68975700e+01  5.79963530e+00  1.55396160e+01  3.59993360e+00  1.01376180e+00
  1.55396160e+01  3.59993360e+00  1.01376180e+00  2.70005800e-01  2.70005800e-01
  8.00000000e-01  8.45000000e-02  8.45000000e-02  5.48467170e+03  8.25234950e+02
  1.88046960e+02  5.29645000e+01  1.68975700e+01  5.79963530e+00  1.55396160e+01
  3.59993360e+00  1.01376180e+00  1.55396160e+01  3.59993360e+00  1.01376180e+00
  2.70005800e-01  2.70005800e-01  8.00000000e-01  8.45000000e-02  8.45000000e-02
  1.87311370e+01  2.82539370e+00  6.40121700e-01  1.61277800e-01  3.04752490e+03
  4.57369510e+02  1.03948690e+02  2.92101550e+01  9.28666300e+00  3.16392700e+00
  7.86827240e+00  1.88128850e+00  5.44249300e-01  7.86827240e+00  1.88128850e+00
  5.44249300e-01  1.68714400e-01  1.68714400e-01  8.00000000e-01  4.38000000e-02
  4.38000000e-02  3.04752490e+03  4.57369510e+02  1.03948690e+02  2.92101550e+01
  9.28666300e+00  3.16392700e+00  7.86827240e+00  1.88128850e+00  5.44249300e-01
  7.86827240e+00  1.88128850e+00  5.44249300e-01  1.68714400e-01  1.68714400e-01
  8.00000000e-01  4.38000000e-02  4.38000000e-02  3.04752490e+03  4.57369510e+02
  1.03948690e+02  2.92101550e+01  9.28666300e+00  3.16392700e+00  7.86827240e+00
  1.88128850e+00  5.44249300e-01  7.86827240e+00  1.88128850e+00  5.44249300e-01
  1.68714400e-01  1.68714400e-01  8.00000000e-01  4.38000000e-02  4.38000000e-02
  1.87311370e+01  2.82539370e+00  6.40121700e-01  1.61277800e-01  1.87311370e+01
  2.82539370e+00  6.40121700e-01  1.61277800e-01  1.87311370e+01  2.82539370e+00
  6.40121700e-01  1.61277800e-01  1.87311370e+01  2.82539370e+00  6.40121700e-01
  1.61277800e-01  1.87311370e+01  2.82539370e+00  6.40121700e-01  1.61277800e-01
  3.04752490e+03  4.57369510e+02  1.03948690e+02  2.92101550e+01  9.28666300e+00
  3.16392700e+00  7.86827240e+00  1.88128850e+00  5.44249300e-01  7.86827240e+00
  1.88128850e+00  5.44249300e-01  1.68714400e-01  1.68714400e-01  8.00000000e-01
  4.38000000e-02  4.38000000e-02  3.04752490e+03  4.57369510e+02  1.03948690e+02
  2.92101550e+01  9.28666300e+00  3.16392700e+00  7.86827240e+00  1.88128850e+00
  5.44249300e-01  7.86827240e+00  1.88128850e+00  5.44249300e-01  1.68714400e-01
  1.68714400e-01  8.00000000e-01  4.38000000e-02  4.38000000e-02  3.04752490e+03
  4.57369510e+02  1.03948690e+02  2.92101550e+01  9.28666300e+00  3.16392700e+00
  7.86827240e+00  1.88128850e+00  5.44249300e-01  7.86827240e+00  1.88128850e+00
  5.44249300e-01  1.68714400e-01  1.68714400e-01  8.00000000e-01  4.38000000e-02
  4.38000000e-02  3.04752490e+03  4.57369510e+02  1.03948690e+02  2.92101550e+01
  9.28666300e+00  3.16392700e+00  7.86827240e+00  1.88128850e+00  5.44249300e-01
  7.86827240e+00  1.88128850e+00  5.44249300e-01  1.68714400e-01  1.68714400e-01
  8.00000000e-01  4.38000000e-02  4.38000000e-02  1.87311370e+01  2.82539370e+00
  6.40121700e-01  1.61277800e-01  1.87311370e+01  2.82539370e+00  6.40121700e-01
  1.61277800e-01  1.87311370e+01  2.82539370e+00  6.40121700e-01  1.61277800e-01
  1.87311370e+01  2.82539370e+00  6.40121700e-01  1.61277800e-01  1.87311370e+01
  2.82539370e+00  6.40121700e-01  1.61277800e-01  1.87311370e+01  2.82539370e+00
  6.40121700e-01  1.61277800e-01
Contraction coefficients                   R   N=         337
  1.83109981e-03  1.39500985e-02  6.84450927e-02  2.32714275e-01  4.70192950e-01
  3.58520862e-01 -1.10777504e-01 -1.48026305e-01  1.13076704e+00  7.08742995e-02
  3.39752798e-01  7.27158595e-01  1.00000000e+00  1.00000000e+00  1.00000000e+00
  1.00000000e+00  1.00000000e+00  1.83470016e-03  1.40373012e-02  6.88426061e-02
  2.32184421e-01  4.67941342e-01  3.62312032e-01 -1.19332409e-01 -1.60854212e-01
  1.14345648e+00  6.89990956e-02  3.16423980e-01  7.44308252e-01  1.00000000e+00
  1.00000000e+00  1.00000000e+00  1.00000000e+00  1.00000000e+00  1.83470016e-03
  1.40373012e-02  6.88426061e-02  2.32184421e-01  4.67941342e-01  3.62312032e-01
 -1.19332409e-01 -1.60854212e-01  1.14345648e+00  6.89990956e-02  3.16423980e-01
  7.44308252e-01  1.00000000e+00  1.00000000e+00  1.00000000e+00  1.00000000e+00
  1.00000000e+00  1.83470016e-03  1.40373012e-02  6.88426061e-02  2.32184421e-01
  4.67941342e-01  3.62312032e-01 -1.19332409e-01 -1.60854212e-01  1.14345648e+00
  6.89990956e-02  3.16423980e-01  7.44308252e-01  1.00000000e+00  1.00000000e+00
  1.00000000e+00  1.00000000e+00  1.00000000e+00  1.83479944e-03  1.39949958e-02
  6.85869792e-02  2.32240930e-01  4.69069858e-01  3.60454891e-01 -1.14961023e-01
 -1.69118034e-01  1.14585223e+00  6.75800232e-02  3.23907111e-01  7.40895255e-01
  1.00000000e+00  1.00000000e+00  1.00000000e+00  1.00000000e+00  1.00000000e+00
  1.83470016e-03  1.40373012e-02  6.88426061e-02  2.32184421e-01  4.67941342e-01
  3.62312032e-01 -1.19332409e-01 -1.60854212e-01  1.14345648e+00  6.89990956e-02
  3.16423980e-01  7.44308252e-01  1.00000000e+00  1.00000000e+00  1.00000000e+00
  1.00000000e+00  1.00000000e+00  1.83479944e-03  1.39949958e-02  6.85869792e-02
  2.32240930e-01  4.69069858e-01  3.60454891e-01 -1.14961023e-01 -1.69118034e-01
  1.14585223e+00  6.75800232e-02  3.23907111e-01  7.40895255e-01  1.00000000e+00
  1.00000000e+00  1.00000000e+00  1.00000000e+00  1.00000000e+00  1.83470016e-03
  1.40373012e-02  6.88426061e-02  2.32184421e-01  4.67941342e-01  3.62312032e-01
 -1.19332409e-01 -1.60854212e-01  1.14345648e+00  6.89990956e-02  3.16423980e-01
  7.44308252e-01  1.00000000e+00  1.00000000e+00  1.00000000e+00  1.00000000e+00
  1.00000000e+00  1.83109981e-03  1.39500985e-02  6.84450927e-02  2.32714275e-01
  4.70192950e-01  3.58520862e-01 -1.10777504e-01 -1.48026305e-01  1.13076704e+00
  7.08742995e-02  3.39752798e-01  7.27158595e-01  1.00000000e+00  1.00000000e+00
  1.00000000e+00  1.00000000e+00  1.00000000e+00  1.83109981e-03  1.39500985e-02
  6.84450927e-02  2.32714275e-01  4.70192950e-01  3.58520862e-01 -1.10777504e-01
 -1.48026305e-01  1.13076704e+00  7.08742995e-02  3.39752798e-01  7.27158595e-01
  1.00000000e+00  1.00000000e+00  1.00000000e+00  1.00000000e+00  1.00000000e+00
  3.34945995e-02  2.34726947e-01  8.13757318e-01  1.00000000e+00  1.83470016e-03
  1.40373012e-02  6.88426061e-02  2.32184421e-01  4.67941342e-01  3.62312032e-01
 -1.19332409e-01 -1.60854212e-01  1.14345648e+00  6.89990956e-02  3.16423980e-01
  7.44308252e-01  1.00000000e+00  1.00000000e+00  1.00000000e+00  1.00000000e+00
  1.00000000e+00  1.83470016e-03  1.40373012e-02  6.88426061e-02  2.32184421e-01
  4.67941342e-01  3.62312032e-01 -1.19332409e-01 -1.60854212e-01  1.14345648e+00
  6.89990956e-02  3.16423980e-01  7.44308252e-01  1.00000000e+00  1.00000000e+00
  1.00000000e+00  1.00000000e+00  1.00000000e+00  1.83470016e-03  1.40373012e-02
  6.88426061e-02  2.32184421e-01  4.67941342e-01  3.62312032e-01 -1.19332409e-01
 -1.60854212e-01  1.14345648e+00  6.89990956e-02  3.16423980e-01  7.44308252e-01
  1.00000000e+00  1.00000000e+00  1.00000000e+00  1.00000000e+00  1.00000000e+00
  3.34945995e-02  2.34726947e-01  8.13757318e-01  1.00000000e+00  3.34945995e-02
  2.34726947e-01  8.13757318e-01  1.00000000e+00  3.34945995e-02  2.34726947e-01
  8.13757318e-01  1.00000000e+00  3.34945995e-02  2.34726947e-01  8.13757318e-01
  1.00000000e+00  3.34945995e-02  2.34726947e-01  8.13757318e-01  1.00000000e+00
  1.83470016e-03  1.40373012e-02  6.88426061e-02  2.32184421e-01  4.67941342e-01
  3.62312032e-01 -1.19332409e-01 -1.60854212e-01  1.14345648e+00  6.89990956e-02
  3.16423980e-01  7.44308252e-01  1.00000000e+00  1.00000000e+00  1.00000000e+00
  1.00000000e+00  1.00000000e+00  1.83470016e-03  1.40373012e-02  6.88426061e-02
  2.32184421e-01  4.67941342e-01  3.62312032e-01 -1.19332409e-01 -1.60854212e-01
  1.14345648e+00  6.89990956e-02  3.16423980e-01  7.44308252e-01  1.00000000e+00
  1.00000000e+00  1.00000000e+00  1.00000000e+00  1.00000000e+00  1.83470016e-03
  1.40373012e-02  6.88426061e-02  2.32184421e-01  4.67941342e-01  3.62312032e-01
 -1.19332409e-01 -1.60854212e-01  1.14345648e+00  6.89990956e-02  3.16423980e-01
  7.44308252e-01  1.00000000e+00  1.00000000e+00  1.00000000e+00  1.00000000e+00
  1.00000000e+00  1.83470016e-03  1.40373012e-02  6.88426061e-02  2.32184421e-01
  4.67941342e-01  3.62312032e-01 -1.19332409e-01 -1.60854212e-01  1.14345648e+00
  6.89990956e-02  3.16423980e-01  7.44308252e-01  1.00000000e+00  1.00000000e+00
  1.00000000e+00  1.00000000e+00  1.00000000e+00  3.34945995e-02  2.34726947e-01
  8.13757318e-01  1.00000000e+00  3.34945995e-02  2.34726947e-01  8.13757318e-01
  1.00000000e+00  3.34945995e-02  2.34726947e-01  8.13757318e-01  1.00000000e+00
  3.34945995e-02  2.34726947e-01  8.13757318e-01  1.00000000e+00  3.34945995e-02
  2.34726947e-01  8.13757318e-01  1.00000000e+00  3.34945995e-02  2.34726947e-01
  8.13757318e-01  1.00000000e+00
Coordinates of each shell                  R   N=         480
  4.21258682e+00 -2.59912090e+00 -3.68521319e-01  4.21258682e+00 -2.59912090e+00
 -3.68521319e-01  4.21258682e+00 -2.59912090e+00 -3.68521319e-01  4.21258682e+00
 -2.59912090e+00 -3.68521319e-01  4.21258682e+00 -2.59912090e+00 -3.68521319e-01
  4.21258682e+00 -2.59912090e+00 -3.68521319e-01  4.21258682e+00 -2.59912090e+00
 -3.68521319e-01  4.21258682e+00 -2.59912090e+00 -3.68521319e-01 -4.36004525e-01
 -2.93435522e+00 -3.10624983e+00 -4.36004525e-01 -2.93435522e+00 -3.10624983e+00
 -4.36004525e-01 -2.93435522e+00 -3.10624983e+00 -4.36004525e-01 -2.93435522e+00
 -3.10624983e+00 -4.36004525e-01 -2.93435522e+00 -3.10624983e+00 -4.36004525e-01
 -2.93435522e+00 -3.10624983e+00 -4.36004525e-01 -2.93435522e+00 -3.10624983e+00
 -4.36004525e-01 -2.93435522e+00 -3.10624983e+00  8.85233833e-02 -7.71270005e-01
 -1.18638862e+00  8.85233833e-02 -7.71270005e-01 -1.18638862e+00  8.85233833e-02
 -7.71270005e-01 -1.18638862e+00  8.85233833e-02 -7.71270005e-01 -1.18638862e+00
  8.85233833e-02 -7.71270005e-01 -1.18638862e+00  8.85233833e-02 -7.71270005e-01
 -1.18638862e+00  8.85233833e-02 -7.71270005e-01 -1.18638862e+00  8.85233833e-02
 -7.71270005e-01 -1.18638862e+00  2.91980407e+00 -7.04442145e-01 -5.49249134e-01
  2.91980407e+00 -7.04442145e-01 -5.49249134e-01  2.91980407e+00 -7.04442145e-01
 -5.49249134e-01  2.91980407e+00 -7.04442145e-01 -5.49249134e-01  2.91980407e+00
 -7.04442145e-01 -5.49249134e-01  2.91980407e+00 -7.04442145e-01 -5.49249134e-01
  2.91980407e+00 -7.04442145e-01 -5.49249134e-01  2.91980407e+00 -7.04442145e-01
 -5.49249134e-01  3.96458011e+00  1.65031155e+00 -4.04600673e-02  3.96458011e+00
  1.65031155e+00 -4.04600673e-02  3.96458011e+00  1.65031155e+00 -4.04600673e-02
  3.96458011e+00  1.65031155e+00 -4.04600673e-02  3.96458011e+00  1.65031155e+00
 -4.04600673e-02  3.96458011e+00  1.65031155e+00 -4.04600673e-02  3.96458011e+00
  1.65031155e+00 -4.04600673e-02  3.96458011e+00  1.65031155e+00 -4.04600673e-02
  2.89479491e+00  4.00406801e+00 -4.98284158e-01  2.89479491e+00  4.00406801e+00
 -4.98284158e-01  2.89479491e+00  4.00406801e+00 -4.98284158e-01  2.89479491e+00
  4.00406801e+00 -4.98284158e-01  2.89479491e+00  4.00406801e+00 -4.98284158e-01
  2.89479491e+00  4.00406801e+00 -4.98284158e-01  2.89479491e+00  4.00406801e+00
 -4.98284158e-01  2.89479491e+00  4.00406801e+00 -4.98284158e-01  5.02017316e-01
  3.90895866e+00 -1.56887340e+00  5.02017316e-01  3.90895866e+00 -1.56887340e+00
  5.02017316e-01  3.90895866e+00 -1.56887340e+00  5.02017316e-01  3.90895866e+00
 -1.56887340e+00  5.02017316e-01  3.90895866e+00 -1.56887340e+00  5.02017316e-01
  3.90895866e+00 -1.56887340e+00  5.02017316e-01  3.90895866e+00 -1.56887340e+00
  5.02017316e-01  3.90895866e+00 -1.56887340e+00 -8.41841121e-01  1.76305570e+00
 -2.26887180e+00 -8.41841121e-01  1.76305570e+00 -2.26887180e+00 -8.41841121e-01
  1.76305570e+00 -2.26887180e+00 -8.41841121e-01  1.76305570e+00 -2.26887180e+00
 -8.41841121e-01  1.76305570e+00 -2.26887180e+00 -8.41841121e-01  1.76305570e+00
 -2.26887180e+00 -8.41841121e-01  1.76305570e+00 -2.26887180e+00 -8.41841121e-01
  1.76305570e+00 -2.26887180e+00  3.98757198e+00  5.97664152e+00 -5.40991814e-02
  3.98757198e+00  5.97664152e+00 -5.40991814e-02  3.98757198e+00  5.97664152e+00
 -5.40991814e-02  3.98757198e+00  5.97664152e+00 -5.40991814e-02  3.98757198e+00
  5.97664152e+00 -5.40991814e-02  3.98757198e+00  5.97664152e+00 -5.40991814e-02
  3.98757198e+00  5.97664152e+00 -5.40991814e-02  3.98757198e+00  5.97664152e+00
 -5.40991814e-02 -2.72376991e+00  1.96078818e+00 -3.57839850e+00 -2.72376991e+00
  1.96078818e+00 -3.57839850e+00 -2.72376991e+00  1.96078818e+00 -3.57839850e+00
 -2.72376991e+00  1.96078818e+00 -3.57839850e+00 -2.72376991e+00  1.96078818e+00
 -3.57839850e+00 -2.72376991e+00  1.96078818e+00 -3.57839850e+00 -2.72376991e+00
  1.96078818e+00 -3.57839850e+00 -2.72376991e+00  1.96078818e+00 -3.57839850e+00
  5.79481436e+00  1.67604196e+00  5.38373856e-01  5.79481436e+00  1.67604196e+00
  5.38373856e-01  9.24358923e-01 -2.67159974e+00 -5.65093484e+00  9.24358923e-01
 -2.67159974e+00 -5.65093484e+00  9.24358923e-01 -2.67159974e+00 -5.65093484e+00
  9.24358923e-01 -2.67159974e+00 -5.65093484e+00  9.24358923e-01 -2.67159974e+00
 -5.65093484e+00  9.24358923e-01 -2.67159974e+00 -5.65093484e+00  9.24358923e-01
 -2.67159974e+00 -5.65093484e+00  9.24358923e-01 -2.67159974e+00 -5.65093484e+00
 -1.42811255e+00 -1.26289425e+00  1.29378417e+00 -1.42811255e+00 -1.26289425e+00
  1.29378417e+00 -1.42811255e+00 -1.26289425e+00  1.29378417e+00 -1.42811255e+00
 -1.26289425e+00  1.29378417e+00 -1.42811255e+00 -1.26289425e+00  1.29378417e+00
 -1.42811255e+00 -1.26289425e+00  1.29378417e+00 -1.42811255e+00 -1.26289425e+00
  1.29378417e+00 -1.42811255e+00 -1.26289425e+00  1.29378417e+00 -4.05544432e+00
 -8.82227684e-01  1.31196404e+00 -4.05544432e+00 -8.82227684e-01  1.31196404e+00
 -4.05544432e+00 -8.82227684e-01  1.31196404e+00 -4.05544432e+00 -8.82227684e-01
  1.31196404e+00 -4.05544432e+00 -8.82227684e-01  1.31196404e+00 -4.05544432e+00
 -8.82227684e-01  1.31196404e+00 -4.05544432e+00 -8.82227684e-01  1.31196404e+00
 -4.05544432e+00 -8.82227684e-01  1.31196404e+00 -2.47959255e+00 -2.99725291e+00
 -3.40561186e+00 -2.47959255e+00 -2.99725291e+00 -3.40561186e+00  1.15877600e-01
 -4.70049189e+00 -2.18466032e+00  1.15877600e-01 -4.70049189e+00 -2.18466032e+00
  3.66946465e-01 -9.42343937e-01 -6.64395933e+00  3.66946465e-01 -9.42343937e-01
 -6.64395933e+00  4.30647491e-01 -4.26998052e+00 -6.87162997e+00  4.30647491e-01
 -4.26998052e+00 -6.87162997e+00  2.98237502e+00 -2.68116700e+00 -5.42708860e+00
  2.98237502e+00 -2.68116700e+00 -5.42708860e+00 -2.67699666e-01 -2.19099431e+00
  3.48942012e+00 -2.67699666e-01 -2.19099431e+00  3.48942012e+00 -2.67699666e-01
 -2.19099431e+00  3.48942012e+00 -2.67699666e-01 -2.19099431e+00  3.48942012e+00
 -2.67699666e-01 -2.19099431e+00  3.48942012e+00 -2.67699666e-01 -2.19099431e+00
  3.48942012e+00 -2.67699666e-01 -2.19099431e+00  3.48942012e+00 -2.67699666e-01
 -2.19099431e+00  3.48942012e+00 -1.69662317e+00 -2.70481929e+00  5.65158617e+00
 -1.69662317e+00 -2.70481929e+00  5.65158617e+00 -1.69662317e+00 -2.70481929e+00
  5.65158617e+00 -1.69662317e+00 -2.70481929e+00  5.65158617e+00 -1.69662317e+00
 -2.70481929e+00  5.65158617e+00 -1.69662317e+00 -2.70481929e+00  5.65158617e+00
 -1.69662317e+00 -2.70481929e+00  5.65158617e+00 -1.69662317e+00 -2.70481929e+00
  5.65158617e+00 -4.30343265e+00 -2.31001020e+00  5.65736857e+00 -4.30343265e+00
 -2.31001020e+00  5.65736857e+00 -4.30343265e+00 -2.31001020e+00  5.65736857e+00
 -4.30343265e+00 -2.31001020e+00  5.65736857e+00 -4.30343265e+00 -2.31001020e+00
  5.65736857e+00 -4.30343265e+00 -2.31001020e+00  5.65736857e+00 -4.30343265e+00
 -2.31001020e+00  5.65736857e+00 -4.30343265e+00 -2.31001020e+00  5.65736857e+00
 -5.47582485e+00 -1.40207086e+00  3.47347405e+00 -5.47582485e+00 -1.40207086e+00
  3.47347405e+00 -5.47582485e+00 -1.40207086e+00  3.47347405e+00 -5.47582485e+00
 -1.40207086e+00  3.47347405e+00 -5.47582485e+00 -1.40207086e+00  3.47347405e+00
 -5.47582485e+00 -1.40207086e+00  3.47347405e+00 -5.47582485e+00 -1.40207086e+00
  3.47347405e+00 -5.47582485e+00 -1.40207086e+00  3.47347405e+00 -5.00151259e+00
 -1.77186144e-01 -3.65290628e-01 -5.00151259e+00 -1.77186144e-01 -3.65290628e-01
  1.74763042e+00 -2.56123968e+00  3.53289952e+00  1.74763042e+00 -2.56123968e+00
  3.53289952e+00 -7.54644326e-01 -3.42307843e+00  7.32950538e+00 -7.54644326e-01
 -3.42307843e+00  7.32950538e+00 -5.41036458e+00 -2.70980439e+00  7.34040321e+00
 -5.41036458e+00 -2.70980439e+00  7.34040321e+00 -7.50588055e+00 -1.09074050e+00
  3.44192286e+00 -7.50588055e+00 -1.09074050e+00  3.44192286e+00 -2.19021087e-01
  5.59833078e+00 -2.12682757e+00 -2.19021087e-01  5.59833078e+00 -2.12682757e+00
Total Energy                               R     -7.997658657133939e+02
Alpha Orbital Energies                     R   N=         347
 -1.91727067e+01 -1.91725390e+01 -1.91695576e+01 -1.44208317e+01 -1.44201762e+01
 -1.03720896e+01 -1.03427049e+01 -1.03426128e+01 -1.02589050e+01 -1.02339407e+01
 -1.02124185e+01 -1.02112891e+01 -1.02110347e+01 -1.02104350e+01 -1.02099301e+01
 -1.02076467e+01 -1.01882748e+01 -1.11361752e+00 -1.08854294e+00 -1.08465365e+00
 -9.89554115e-01 -9.50343229e-01 -8.84219274e-01 -8.39712994e-01 -7.68869082e-01
 -7.65196588e-01 -7.39609203e-01 -7.00040993e-01 -6.77969212e-01 -6.53796829e-01
 -6.29435846e-01 -6.19994605e-01 -5.83080629e-01 -5.82189968e-01 -5.44445587e-01