Generated by Psi4
     FORCE                           RHF                       TESTBAS
Number of atoms                            I               36
Charge                                     I                0
Multiplicity                               I                1
Number of electrons                        I              112
Number of alpha electrons                  I               56
Number of beta electrons                   I               56
Number of basis functions                  I              327
Number of independent functions            I              327
Atomic numbers                             I   N=          36
           6           6           6           6           6           6
           6           6           6           6           6           6
           1           1           1           1           1           1
           1           1           1           1           1           1
           1           1           1           7           6           6
           1           1           1           1           1           1
Nuclear charges                            R   N=          36
  6.00000000e+00  6.00000000e+00  6.00000000e+00  6.00000000e+00  6.00000000e+00
  6.00000000e+00  6.00000000e+00  6.00000000e+00  6.00000000e+00  6.00000000e+00
  6.00000000e+00  6.00000000e+00  1.00000000e+00  1.00000000e+00  1.00000000e+00
  1.00000000e+00  1.00000000e+00  1.00000000e+00  1.00000000e+00  1.00000000e+00
  1.00000000e+00  1.00000000e+00  1.00000000e+00  1.00000000e+00  1.00000000e+00
  1.00000000e+00  1.00000000e+00  7.00000000e+00  6.00000000e+00  6.00000000e+00
  1.00000000e+00  1.00000000e+00  1.00000000e+00  1.00000000e+00  1.00000000e+00
  1.00000000e+00
Current cartesian coordinates              R   N=         108
 -6.56103896e+00 -9.73176390e-01 -1.17007492e+00 -5.15424298e+00 -2.31725608e+00
  9.85558975e-01 -2.32803962e+00 -2.59508189e+00  3.77837505e-01 -1.01424677e+00
 -9.17598295e-03 -1.02350482e-01  2.83226237e+00 -2.61038696e+00 -1.67438314e+00
  1.76296653e+00 -3.00620587e-01 -9.36843281e-01  5.34206077e+00 -2.75633828e+00
 -2.50136437e+00  6.83822327e+00 -5.89234665e-01 -2.61035439e+00 -5.34278227e+00
  1.58828929e+00 -1.78787803e+00 -2.48171128e+00  1.34912897e+00 -2.26361760e+00
  3.30166987e+00  1.86382446e+00 -1.04713839e+00  5.80093923e+00  1.72846908e+00
 -1.87473616e+00 -6.23799395e+00  2.42457716e+00 -3.46280574e+00 -5.70969193e+00
  2.92380363e+00 -2.36613151e-01 -2.16155468e+00 -3.76590823e+00 -1.32699480e+00
 -1.35791806e+00 -3.62587993e+00  1.89207574e+00 -6.50577420e+00 -2.17971222e+00
 -2.86372260e+00 -8.56356709e+00 -7.21697433e-01 -6.88051539e-01  6.94451217e+00
  3.43519746e+00 -1.93863959e+00  6.11945204e+00 -4.57679304e+00 -3.05399774e+00
 -5.97544218e+00 -4.19372239e+00  1.31540425e+00 -5.40769040e+00 -1.25861210e+00
  2.75684330e+00  8.78685650e+00 -7.01072793e-01 -3.25184881e+00  2.51784322e+00
  3.65929040e+00 -4.37926640e-01  1.73023235e+00 -4.33773782e+00 -1.60673172e+00
 -2.17788208e+00  2.66677155e-01 -4.00826918e+00 -1.64712532e+00  3.22058651e+00
 -2.56586662e+00 -1.06078410e+00  1.68271960e+00  2.12789374e+00 -2.40806819e-02
  7.04215486e-01  4.50097071e+00  6.71780432e-02  2.79005465e+00  6.49864348e+00
  1.89292131e+00  1.77680702e-02  4.12136556e+00 -1.10156903e+00 -9.17882848e-01
  5.25651817e+00 -2.84895598e+00  2.31652981e+00  2.43134349e+00  1.23688653e+00
  4.37199044e+00  5.85452411e+00  8.50009673e-01  2.06703510e+00  8.27615106e+00
 -1.83137109e+00  3.52453207e+00  6.90435172e+00
Integer atomic weights                     I   N=          36
          12          12          12          12          12          12
          12          12          12          12          12          12
           1           1           1           1           1           1
           1           1           1           1           1           1
           1           1           1          14          12          12
           1           1           1           1           1           1
Real atomic weights                        R   N=          36
  1.20000000e+01  1.20000000e+01  1.20000000e+01  1.20000000e+01  1.20000000e+01
  1.20000000e+01  1.20000000e+01  1.20000000e+01  1.20000000e+01  1.20000000e+01
  1.20000000e+01  1.20000000e+01  1.00782503e+00  1.00782503e+00  1.00782503e+00
  1.00782503e+00  1.00782503e+00  1.00782503e+00  1.00782503e+00  1.00782503e+00
  1.00782503e+00  1.00782503e+00  1.00782503e+00  1.00782503e+00  1.00782503e+00
  1.00782503e+00  1.00782503e+00  1.40030740e+01  1.20000000e+01  1.20000000e+01
  1.00782503e+00  1.00782503e+00  1.00782503e+00  1.00782503e+00  1.00782503e+00
  1.00782503e+00
Number of primitive shells                 I              339
Number of contracted shells                I              162
Pure/Cartesian d shells                    I                1
Pure/Cartesian f shells                    I                1
Highest angular momentum                   I                2
Largest degree of contraction              I                6
Shell types                                I   N=         162
           0           0           1           0           1           2
           0           1           0           0           1           0
           1           2           0           1           0           0
           1           0           1           2           0           1
           0           0           1           0           1           2
           0           1           0           0           1           0
           1           2           0           1           0           0
           1           0           1           2           0           1
           0           0           1           0           1           2
           0           1           0           0           1           0
           1           2           0           1           0           0
           1           0           1           2           0           1
           0           0           1           0           1           2
           0           1           0           0           1           0
           1           2           0           1           0           0
           1           0           1           2           0           1
           0           0           0           0           0           0
           0           0           0           0           0           0
           0           0           0           0           0           0
           0           0           0           0           0           0
           0           0           0           0           0           0
           0           0           1           0           1           2
           0           1           0           0           1           0
           1           2           0           1           0           0
           1           0           1           2           0           1
           0           0           0           0           0           0
           0           0           0           0           0           0
Number of primitives per shell             I   N=         162
           6           3           3           1           1           1
           1           1           6           3           3           1
           1           1           1           1           6           3
           3           1           1           1           1           1
           6           3           3           1           1           1
           1           1           6           3           3           1
           1           1           1           1           6           3
           3           1           1           1           1           1
           6           3           3           1           1           1
           1           1           6           3           3           1
           1           1           1           1           6           3
           3           1           1           1           1           1
           6           3           3           1           1           1
           1           1           6           3           3           1
           1           1           1           1           6           3
           3           1           1           1           1           1
           3           1           3           1           3           1
           3           1           3           1           3           1
           3           1           3           1           3           1
           3           1           3           1           3           1
           3           1           3           1           3           1
           6           3           3           1           1           1
           1           1           6           3           3           1
           1           1           1           1           6           3
           3           1           1           1           1           1
           3           1           3           1           3           1
           3           1           3           1           3           1
Shell to atom map                          I   N=         162
           1           1           1           1           1           1
           1           1           2           2           2           2
           2           2           2           2           3           3
           3           3           3           3           3           3
           4           4           4           4           4           4
           4           4           5           5           5           5
           5           5           5           5           6           6
           6           6           6           6           6           6
           7           7           7           7           7           7
           7           7           8           8           8           8
           8           8           8           8           9           9
           9           9           9           9           9           9
          10          10          10          10          10          10
          10          10          11          11          11          11
          11          11          11          11          12          12
          12          12          12          12          12          12
          13          13          14          14          15          15
          16          16          17          17          18          18
          19          19          20          20          21          21
          22          22          23          23          24          24
          25          25          26          26          27          27
          28          28          28          28          28          28
          28          28          29          29          29          29
          29          29          29          29          30          30
          30          30          30          30          30          30
          31          31          32          32          33          33
          34          34          35          35          36          36
Primitive exponents                        R   N=         339
  3.04752490e+03  4.57369510e+02  1.03948690e+02  2.92101550e+01  9.28666300e+00
  3.16392700e+00  7.86827240e+00  1.88128850e+00  5.44249300e-01  7.86827240e+00
  1.88128850e+00  5.44249300e-01  1.68714400e-01  1.68714400e-01  8.00000000e-01
  4.38000000e-02  4.38000000e-02  3.04752490e+03  4.57369510e+02  1.03948690e+02
  2.92101550e+01  9.28666300e+00  3.16392700e+00  7.86827240e+00  1.88128850e+00
  5.44249300e-01  7.86827240e+00  1.88128850e+00  5.44249300e-01  1.68714400e-01
  1.68714400e-01  8.00000000e-01  4.38000000e-02  4.38000000e-02  3.04752490e+03
  4.57369510e+02  1.03948690e+02  2.92101550e+01  9.28666300e+00  3.16392700e+00
  7.86827240e+00  1.88128850e+00  5.44249300e-01  7.86827240e+00  1.88128850e+00
  5.44249300e-01  1.68714400e-01  1.68714400e-01  8.00000000e-01  4.38000000e-02
  4.38000000e-02  3.04752490e+03  4.57369510e+02  1.03948690e+02  2.92101550e+01
  9.28666300e+00  3.16392700e+00  7.86827240e+00  1.88128850e+00  5.44249300e-01
  7.86827240e+00  1.88128850e+00  5.44249300e-01  1.68714400e-01  1.68714400e-01
  8.00000000e-01  4.38000000e-02  4.38000000e-02  3.04752490e+03  4.57369510e+02
  1.03948690e+02  2.92101550e+01  9.28666300e+00  3.16392700e+00  7.86827240e+00
  1.88128850e+00  5.44249300e-01  7.86827240e+00  1.88128850e+00  5.44249300e-01
  1.68714400e-01  1.68714400e-01  8.00000000e-01  4.38000000e-02  4.38000000e-02
  3.04752490e+03  4.57369510e+02  1.03948690e+02  2.92101550e+01  9.28666300e+00
  3.16392700e+00  7.86827240e+00  1.88128850e+00  5.44249300e-01  7.86827240e+00
  1.88128850e+00  5.44249300e-01  1.68714400e-01  1.68714400e-01  8.00000000e-01
  4.38000000e-02  4.38000000e-02  3.04752490e+03  4.57369510e+02  1.03948690e+02
  2.92101550e+01  9.28666300e+00  3.16392700e+00  7.86827240e+00  1.88128850e+00
  5.44249300e-01  7.86827240e+00  1.88128850e+00  5.44249300e-01  1.68714400e-01
  1.68714400e-01  8.00000000e-01  4.38000000e-02  4.38000000e-02  3.04752490e+03
  4.57369510e+02  1.03948690e+02  2.92101550e+01  9.28666300e+00  3.16392700e+00
  7.86827240e+00  1.88128850e+00  5.44249300e-01  7.86827240e+00  1.88128850e+00
  5.44249300e-01  1.68714400e-01  1.68714400e-01  8.00000000e-01  4.38000000e-02
  4.38000000e-02  3.04752490e+03  4.57369510e+02  1.03948690e+02  2.92101550e+01
  9.28666300e+00  3.16392700e+00  7.86827240e+00  1.88128850e+00  5.44249300e-01
  7.86827240e+00  1.88128850e+00  5.44249300e-01  1.68714400e-01  1.68714400e-01
  8.00000000e-01  4.38000000e-02  4.38000000e-02  3.04752490e+03  4.57369510e+02
  1.03948690e+02  2.92101550e+01  9.28666300e+00  3.16392700e+00  7.86827240e+00
  1.88128850e+00  5.44249300e-01  7.86827240e+00  1.88128850e+00  5.44249300e-01
  1.68714400e-01  1.68714400e-01  8.00000000e-01  4.38000000e-02  4.38000000e-02
  3.04752490e+03  4.57369510e+02  1.03948690e+02  2.92101550e+01  9.28666300e+00
  3.16392700e+00  7.86827240e+00  1.88128850e+00  5.44249300e-01  7.86827240e+00
  1.88128850e+00  5.44249300e-01  1.68714400e-01  1.68714400e-01  8.00000000e-01
  4.38000000e-02  4.38000000e-02  3.04752490e+03  4.57369510e+02  1.03948690e+02
  2.92101550e+01  9.28666300e+00  3.16392700e+00  7.86827240e+00  1.88128850e+00
  5.44249300e-01  7.86827240e+00  1.88128850e+00  5.44249300e-01  1.68714400e-01
  1.68714400e-01  8.00000000e-01  4.38000000e-02  4.38000000e-02  1.87311370e+01
  2.82539370e+00  6.40121700e-01  1.61277800e-01  1.87311370e+01  2.82539370e+00
  6.40121700e-01  1.61277800e-01  1.87311370e+01  2.82539370e+00  6.40121700e-01
  1.61277800e-01  1.87311370e+01  2.82539370e+00  6.40121700e-01  1.61277800e-01
  1.87311370e+01  2.82539370e+00  6.40121700e-01  1.61277800e-01  1.87311370e+01
  2.82539370e+00  6.40121700e-01  1.61277800e-01  1.87311370e+01  2.82539370e+00
  6.40121700e-01  1.61277800e-01  1.87311370e+01  2.82539370e+00  6.40121700e-01
  1.61277800e-01  1.87311370e+01  2.82539370e+00  6.40121700e-01  1.61277800e-01
  1.87311370e+01  2.82539370e+00  6.40121700e-01  1.61277800e-01  1.87311370e+01
  2.82539370e+00  6.40121700e-01  1.61277800e-01  1.87311370e+01  2.82539370e+00
  6.40121700e-01  1.61277800e-01  1.87311370e+01  2.82539370e+00  6.40121700e-01
  1.61277800e-01  1.87311370e+01  2.82539370e+00  6.40121700e-01  1.61277800e-01
  1.87311370e+01  2.82539370e+00  6.40121700e-01  1.61277800e-01  4.17351100e+03
  6.27457900e+02  1.42902100e+02  4.02343300e+01  1.28202100e+01  4.39043700e+00
  1.16263580e+01  2.71628000e+00  7.72218000e-01  1.16263580e+01  2.71628000e+00
  7.72218000e-01  2.12031300e-01  2.12031300e-01  8.00000000e-01  6.39000000e-02
  6.39000000e-02  3.04752490e+03  4.57369510e+02  1.03948690e+02  2.92101550e+01
  9.28666300e+00  3.16392700e+00  7.86827240e+00  1.88128850e+00  5.44249300e-01
  7.86827240e+00  1.88128850e+00  5.44249300e-01  1.68714400e-01  1.68714400e-01
  8.00000000e-01  4.38000000e-02  4.38000000e-02  3.04752490e+03  4.57369510e+02
  1.03948690e+02  2.92101550e+01  9.28666300e+00  3.16392700e+00  7.86827240e+00
  1.88128850e+00  5.44249300e-01  7.86827240e+00  1.88128850e+00  5.44249300e-01
  1.68714400e-01  1.68714400e-01  8.00000000e-01  4.38000000e-02  4.38000000e-02
  1.87311370e+01  2.82539370e+00  6.40121700e-01  1.61277800e-01  1.87311370e+01
  2.82539370e+00  6.40121700e-01  1.61277800e-01  1.87311370e+01  2.82539370e+00
  6.40121700e-01  1.61277800e-01  1.87311370e+01  2.82539370e+00  6.40121700e-01
  1.61277800e-01  1.87311370e+01  2.82539370e+00  6.40121700e-01  1.61277800e-01
  1.87311370e+01  2.82539370e+00  6.40121700e-01  1.61277800e-01
Contraction coefficients                   R   N=         339
  1.83470016e-03  1.40373012e-02  6.88426061e-02  2.32184421e-01  4.67941342e-01
  3.62312032e-01 -1.19332409e-01 -1.60854212e-01  1.14345648e+00  6.89990956e-02
  3.16423980e-01  7.44308252e-01  1.00000000e+00  1.00000000e+00  1.00000000e+00
  1.00000000e+00  1.00000000e+00  1.83470016e-03  1.40373012e-02  6.88426061e-02
  2.32184421e-01  4.67941342e-01  3.62312032e-01 -1.19332409e-01 -1.60854212e-01
  1.14345648e+00  6.89990956e-02  3.16423980e-01  7.44308252e-01  1.00000000e+00
  1.00000000e+00  1.00000000e+00  1.00000000e+00  1.00000000e+00  1.83470016e-03
  1.40373012e-02  6.88426061e-02  2.32184421e-01  4.67941342e-01  3.62312032e-01
 -1.19332409e-01 -1.60854212e-01  1.14345648e+00  6.89990956e-02  3.16423980e-01
  7.44308252e-01  1.00000000e+00  1.00000000e+00  1.00000000e+00  1.00000000e+00
  1.00000000e+00  1.83470016e-03  1.40373012e-02  6.88426061e-02  2.32184421e-01
  4.67941342e-01  3.62312032e-01 -1.19332409e-01 -1.60854212e-01  1.14345648e+00
  6.89990956e-02  3.16423980e-01  7.44308252e-01  1.00000000e+00  1.00000000e+00
  1.00000000e+00  1.00000000e+00  1.00000000e+00  1.83470016e-03  1.40373012e-02
  6.88426061e-02  2.32184421e-01  4.67941342e-01  3.62312032e-01 -1.19332409e-01
 -1.60854212e-01  1.14345648e+00  6.89990956e-02  3.16423980e-01  7.44308252e-01
  1.00000000e+00  1.00000000e+00  1.00000000e+00  1.00000000e+00  1.00000000e+00
  1.83470016e-03  1.40373012e-02  6.88426061e-02  2.32184421e-01  4.67941342e-01
  3.62312032e-01 -1.19332409e-01 -1.60854212e-01  1.14345648e+00  6.89990956e-02
  3.16423980e-01  7.44308252e-01  1.00000000e+00  1.00000000e+00  1.00000000e+00
  1.00000000e+00  1.00000000e+00  1.83470016e-03  1.40373012e-02  6.88426061e-02
  2.32184421e-01  4.67941342e-01  3.62312032e-01 -1.19332409e-01 -1.60854212e-01
  1.14345648e+00  6.89990956e-02  3.16423980e-01  7.44308252e-01  1.00000000e+00
  1.00000000e+00  1.00000000e+00  1.00000000e+00  1.00000000e+00  1.83470016e-03
  1.40373012e-02  6.88426061e-02  2.32184421e-01  4.67941342e-01  3.62312032e-01
 -1.19332409e-01 -1.60854212e-01  1.14345648e+00  6.89990956e-02  3.16423980e-01
  7.44308252e-01  1.00000000e+00  1.00000000e+00  1.00000000e+00  1.00000000e+00
  1.00000000e+00  1.83470016e-03  1.40373012e-02  6.88426061e-02  2.32184421e-01
  4.67941342e-01  3.62312032e-01 -1.19332409e-01 -1.60854212e-01  1.14345648e+00
  6.89990956e-02  3.16423980e-01  7.44308252e-01  1.00000000e+00  1.00000000e+00
  1.00000000e+00  1.00000000e+00  1.00000000e+00  1.83470016e-03  1.40373012e-02
  6.88426061e-02  2.32184421e-01  4.67941342e-01  3.62312032e-01 -1.19332409e-01
 -1.60854212e-01  1.14345648e+00  6.89990956e-02  3.16423980e-01  7.44308252e-01
  1.00000000e+00  1.00000000e+00  1.00000000e+00  1.00000000e+00  1.00000000e+00
  1.83470016e-03  1.40373012e-02  6.88426061e-02  2.32184421e-01  4.67941342e-01
  3.62312032e-01 -1.19332409e-01 -1.60854212e-01  1.14345648e+00  6.89990956e-02
  3.16423980e-01  7.44308252e-01  1.00000000e+00  1.00000000e+00  1.00000000e+00
  1.00000000e+00  1.00000000e+00  1.83470016e-03  1.40373012e-02  6.88426061e-02
  2.32184421e-01  4.67941342e-01  3.62312032e-01 -1.19332409e-01 -1.60854212e-01
  1.14345648e+00  6.89990956e-02  3.16423980e-01  7.44308252e-01  1.00000000e+00
  1.00000000e+00  1.00000000e+00  1.00000000e+00  1.00000000e+00  3.34945995e-02
  2.34726947e-01  8.13757318e-01  1.00000000e+00  3.34945995e-02  2.34726947e-01
  8.13757318e-01  1.00000000e+00  3.34945995e-02  2.34726947e-01  8.13757318e-01
  1.00000000e+00  3.34945995e-02  2.34726947e-01  8.13757318e-01  1.00000000e+00
  3.34945995e-02  2.34726947e-01  8.13757318e-01  1.00000000e+00  3.34945995e-02
  2.34726947e-01  8.13757318e-01  1.00000000e+00  3.34945995e-02  2.34726947e-01
  8.13757318e-01  1.00000000e+00  3.34945995e-02  2.34726947e-01  8.13757318e-01
  1.00000000e+00  3.34945995e-02  2.34726947e-01  8.13757318e-01  1.00000000e+00
  3.34945995e-02  2.34726947e-01  8.13757318e-01  1.00000000e+00  3.34945995e-02
  2.34726947e-01  8.13757318e-01  1.00000000e+00  3.34945995e-02  2.34726947e-01
  8.13757318e-01  1.00000000e+00  3.34945995e-02  2.34726947e-01  8.13757318e-01
  1.00000000e+00  3.34945995e-02  2.34726947e-01  8.13757318e-01  1.00000000e+00
  3.34945995e-02  2.34726947e-01  8.13757318e-01  1.00000000e+00  1.83479944e-03
  1.39949958e-02  6.85869792e-02  2.32240930e-01  4.69069858e-01  3.60454891e-01
 -1.14961023e-01 -1.69118034e-01  1.14585223e+00  6.75800232e-02  3.23907111e-01
  7.40895255e-01  1.00000000e+00  1.00000000e+00  1.00000000e+00  1.00000000e+00
  1.00000000e+00  1.83470016e-03  1.40373012e-02  6.88426061e-02  2.32184421e-01
  4.67941342e-01  3.62312032e-01 -1.19332409e-01 -1.60854212e-01  1.14345648e+00
  6.89990956e-02  3.16423980e-01  7.44308252e-01  1.00000000e+00  1.00000000e+00
  1.00000000e+00  1.00000000e+00  1.00000000e+00  1.83470016e-03  1.40373012e-02
  6.88426061e-02  2.32184421e-01  4.67941342e-01  3.62312032e-01 -1.19332409e-01
 -1.60854212e-01  1.14345648e+00  6.89990956e-02  3.16423980e-01  7.44308252e-01
  1.00000000e+00  1.00000000e+00  1.00000000e+00  1.00000000e+00  1.00000000e+00
  3.34945995e-02  2.34726947e-01  8.13757318e-01  1.00000000e+00  3.34945995e-02
  2.34726947e-01  8.13757318e-01  1.00000000e+00  3.34945995e-02  2.34726947e-01
  8.13757318e-01  1.00000000e+00  3.34945995e-02  2.34726947e-01  8.13757318e-01
  1.00000000e+00  3.34945995e-02  2.34726947e-01  8.13757318e-01  1.00000000e+00
  3.34945995e-02  2.34726947e-01  8.13757318e-01  1.00000000e+00
Coordinates of each shell                  R   N=         486
 -6.56103896e+00 -9.73176390e-01 -1.17007492e+00 -6.56103896e+00 -9.73176390e-01
 -1.17007492e+00 -6.56103896e+00 -9.73176390e-01 -1.17007492e+00 -6.56103896e+00
 -9.73176390e-01 -1.17007492e+00 -6.56103896e+00 -9.73176390e-01 -1.17007492e+00
 -6.56103896e+00 -9.73176390e-01 -1.17007492e+00 -6.56103896e+00 -9.73176390e-01
 -1.17007492e+00 -6.56103896e+00 -9.73176390e-01 -1.17007492e+00 -5.15424298e+00
 -2.31725608e+00  9.85558975e-01 -5.15424298e+00 -2.31725608e+00  9.85558975e-01
 -5.15424298e+00 -2.31725608e+00  9.85558975e-01 -5.15424298e+00 -2.31725608e+00
  9.85558975e-01 -5.15424298e+00 -2.31725608e+00  9.85558975e-01 -5.15424298e+00
 -2.31725608e+00  9.85558975e-01 -5.15424298e+00 -2.31725608e+00  9.85558975e-01
 -5.15424298e+00 -2.31725608e+00  9.85558975e-01 -2.32803962e+00 -2.59508189e+00
  3.77837505e-01 -2.32803962e+00 -2.59508189e+00  3.77837505e-01 -2.32803962e+00
 -2.59508189e+00  3.77837505e-01 -2.32803962e+00 -2.59508189e+00  3.77837505e-01
 -2.32803962e+00 -2.59508189e+00  3.77837505e-01 -2.32803962e+00 -2.59508189e+00
  3.77837505e-01 -2.32803962e+00 -2.59508189e+00  3.77837505e-01 -2.32803962e+00
 -2.59508189e+00  3.77837505e-01 -1.01424677e+00 -9.17598295e-03 -1.02350482e-01
 -1.01424677e+00 -9.17598295e-03 -1.02350482e-01 -1.01424677e+00 -9.17598295e-03
 -1.02350482e-01 -1.01424677e+00 -9.17598295e-03 -1.02350482e-01 -1.01424677e+00
 -9.17598295e-03 -1.02350482e-01 -1.01424677e+00 -9.17598295e-03 -1.02350482e-01
 -1.01424677e+00 -9.17598295e-03 -1.02350482e-01 -1.01424677e+00 -9.17598295e-03
 -1.02350482e-01  2.83226237e+00 -2.61038696e+00 -1.67438314e+00  2.83226237e+00
 -2.61038696e+00 -1.67438314e+00  2.83226237e+00 -2.61038696e+00 -1.67438314e+00
  2.83226237e+00 -2.61038696e+00 -1.67438314e+00  2.83226237e+00 -2.61038696e+00
 -1.67438314e+00  2.83226237e+00 -2.61038696e+00 -1.67438314e+00  2.83226237e+00
 -2.61038696e+00 -1.67438314e+00  2.83226237e+00 -2.61038696e+00 -1.67438314e+00
  1.76296653e+00 -3.00620587e-01 -9.36843281e-01  1.76296653e+00 -3.00620587e-01
 -9.36843281e-01  1.76296653e+00 -3.00620587e-01 -9.36843281e-01  1.76296653e+00
 -3.00620587e-01 -9.36843281e-01  1.76296653e+00 -3.00620587e-01 -9.36843281e-01
  1.76296653e+00 -3.00620587e-01 -9.36843281e-01  1.76296653e+00 -3.00620587e-01
 -9.36843281e-01  1.76296653e+00 -3.00620587e-01 -9.36843281e-01  5.34206077e+00
 -2.75633828e+00 -2.50136437e+00  5.34206077e+00 -2.75633828e+00 -2.50136437e+00
  5.34206077e+00 -2.75633828e+00 -2.50136437e+00  5.34206077e+00 -2.75633828e+00
 -2.50136437e+00  5.34206077e+00 -2.75633828e+00 -2.50136437e+00  5.34206077e+00
 -2.75633828e+00 -2.50136437e+00  5.34206077e+00 -2.75633828e+00 -2.50136437e+00
  5.34206077e+00 -2.75633828e+00 -2.50136437e+00  6.83822327e+00 -5.89234665e-01
 -2.61035439e+00  6.83822327e+00 -5.89234665e-01 -2.61035439e+00  6.83822327e+00
 -5.89234665e-01 -2.61035439e+00  6.83822327e+00 -5.89234665e-01 -2.61035439e+00
  6.83822327e+00 -5.89234665e-01 -2.61035439e+00  6.83822327e+00 -5.89234665e-01
 -2.61035439e+00  6.83822327e+00 -5.89234665e-01 -2.61035439e+00  6.83822327e+00
 -5.89234665e-01 -2.61035439e+00 -5.34278227e+00  1.58828929e+00 -1.78787803e+00
 -5.34278227e+00  1.58828929e+00 -1.78787803e+00 -5.34278227e+00  1.58828929e+00
 -1.78787803e+00 -5.34278227e+00  1.58828929e+00 -1.78787803e+00 -5.34278227e+00
  1.58828929e+00 -1.78787803e+00 -5.34278227e+00  1.58828929e+00 -1.78787803e+00
 -5.34278227e+00  1.58828929e+00 -1.78787803e+00 -5.34278227e+00  1.58828929e+00
 -1.78787803e+00 -2.48171128e+00  1.34912897e+00 -2.26361760e+00 -2.48171128e+00
  1.34912897e+00 -2.26361760e+00 -2.48171128e+00  1.34912897e+00 -2.26361760e+00
 -2.48171128e+00  1.34912897e+00 -2.26361760e+00 -2.48171128e+00  1.34912897e+00
 -2.26361760e+00 -2.48171128e+00  1.34912897e+00 -2.26361760e+00 -2.48171128e+00
  1.34912897e+00 -2.26361760e+00 -2.48171128e+00  1.34912897e+00 -2.26361760e+00
  3.30166987e+00  1.86382446e+00 -1.04713839e+00  3.30166987e+00  1.86382446e+00
 -1.04713839e+00  3.30166987e+00  1.86382446e+00 -1.04713839e+00  3.30166987e+00
  1.86382446e+00 -1.04713839e+00  3.30166987e+00  1.86382446e+00 -1.04713839e+00
  3.30166987e+00  1.86382446e+00 -1.04713839e+00  3.30166987e+00  1.86382446e+00
 -1.04713839e+00  3.30166987e+00  1.86382446e+00 -1.04713839e+00  5.80093923e+00
  1.72846908e+00 -1.87473616e+00  5.80093923e+00  1.72846908e+00 -1.87473616e+00
  5.80093923e+00  1.72846908e+00 -1.87473616e+00  5.80093923e+00  1.72846908e+00
 -1.87473616e+00  5.80093923e+00  1.72846908e+00 -1.87473616e+00  5.80093923e+00
  1.72846908e+00 -1.87473616e+00  5.80093923e+00  1.72846908e+00 -1.87473616e+00
  5.80093923e+00  1.72846908e+00 -1.87473616e+00 -6.23799395e+00  2.42457716e+00
 -3.46280574e+00 -6.23799395e+00  2.42457716e+00 -3.46280574e+00 -5.70969193e+00
  2.92380363e+00 -2.36613151e-01 -5.70969193e+00  2.92380363e+00 -2.36613151e-01
 -2.16155468e+00 -3.76590823e+00 -1.32699480e+00 -2.16155468e+00 -3.76590823e+00
 -1.32699480e+00 -1.35791806e+00 -3.62587993e+00  1.89207574e+00 -1.35791806e+00
 -3.62587993e+00  1.89207574e+00 -6.50577420e+00 -2.17971222e+00 -2.86372260e+00
 -6.50577420e+00 -2.17971222e+00 -2.86372260e+00 -8.56356709e+00 -7.21697433e-01
 -6.88051539e-01 -8.56356709e+00 -7.21697433e-01 -6.88051539e-01  6.94451217e+00
  3.43519746e+00 -1.93863959e+00  6.94451217e+00  3.43519746e+00 -1.93863959e+00
  6.11945204e+00 -4.57679304e+00 -3.05399774e+00  6.11945204e+00 -4.57679304e+00
 -3.05399774e+00 -5.97544218e+00 -4.19372239e+00  1.31540425e+00 -5.97544218e+00
 -4.19372239e+00  1.31540425e+00 -5.40769040e+00 -1.25861210e+00  2.75684330e+00
 -5.40769040e+00 -1.25861210e+00  2.75684330e+00  8.78685650e+00 -7.01072793e-01
 -3.25184881e+00  8.78685650e+00 -7.01072793e-01 -3.25184881e+00  2.51784322e+00
  3.65929040e+00 -4.37926640e-01  2.51784322e+00  3.65929040e+00 -4.37926640e-01
  1.73023235e+00 -4.33773782e+00 -1.60673172e+00  1.73023235e+00 -4.33773782e+00
 -1.60673172e+00 -2.17788208e+00  2.66677155e-01 -4.00826918e+00 -2.17788208e+00
  2.66677155e-01 -4.00826918e+00 -1.64712532e+00  3.22058651e+00 -2.56586662e+00
 -1.64712532e+00  3.22058651e+00 -2.56586662e+00 -1.06078410e+00  1.68271960e+00
  2.12789374e+00 -1.06078410e+00  1.68271960e+00  2.12789374e+00 -1.06078410e+00
  1.68271960e+00  2.12789374e+00 -1.06078410e+00  1.68271960e+00  2.12789374e+00
 -1.06078410e+00  1.68271960e+00  2.12789374e+00 -1.06078410e+00  1.68271960e+00
  2.12789374e+00 -1.06078410e+00  1.68271960e+00  2.12789374e+00 -1.06078410e+00
  1.68271960e+00  2.12789374e+00 -2.40806819e-02  7.04215486e-01  4.50097071e+00
 -2.40806819e-02  7.04215486e-01  4.50097071e+00 -2.40806819e-02  7.04215486e-01
  4.50097071e+00 -2.40806819e-02  7.04215486e-01  4.50097071e+00 -2.40806819e-02
  7.04215486e-01  4.50097071e+00 -2.40806819e-02  7.04215486e-01  4.50097071e+00
 -2.40806819e-02  7.04215486e-01  4.50097071e+00 -2.40806819e-02  7.04215486e-01
  4.50097071e+00  6.71780432e-02  2.79005465e+00  6.49864348e+00  6.71780432e-02
  2.79005465e+00  6.49864348e+00  6.71780432e-02  2.79005465e+00  6.49864348e+00
  6.71780432e-02  2.79005465e+00  6.49864348e+00  6.71780432e-02  2.79005465e+00
  6.49864348e+00  6.71780432e-02  2.79005465e+00  6.49864348e+00  6.71780432e-02
  2.79005465e+00  6.49864348e+00  6.71780432e-02  2.79005465e+00  6.49864348e+00
  1.89292131e+00  1.77680702e-02  4.12136556e+00  1.89292131e+00  1.77680702e-02
  4.12136556e+00 -1.10156903e+00 -9.17882848e-01  5.25651817e+00 -1.10156903e+00
 -9.17882848e-01  5.25651817e+00 -2.84895598e+00  2.31652981e+00  2.43134349e+00
 -2.84895598e+00  2.31652981e+00  2.43134349e+00  1.23688653e+00  4.37199044e+00