Generated by Psi4
     FORCE                           RHF                       TESTBAS
Number of atoms                            I               17
Charge                                     I                0
Multiplicity                               I                1
Number of electrons                        I               48
Number of alpha electrons                  I               24
Number of beta electrons                   I               24
Number of basis functions                  I              136
Number of independent functions            I              136
Atomic numbers                             I   N=          17
           7           6           6           6           6           6
           1           1           1           1           1           1
           1           1           1           1           1
Nuclear charges                            R   N=          17
  7.00000000e+00  6.00000000e+00  6.00000000e+00  6.00000000e+00  6.00000000e+00
  6.00000000e+00  1.00000000e+00  1.00000000e+00  1.00000000e+00  1.00000000e+00
  1.00000000e+00  1.00000000e+00  1.00000000e+00  1.00000000e+00  1.00000000e+00
  1.00000000e+00  1.00000000e+00
Current cartesian coordinates              R   N=          51
 -2.35344976e+00  4.40410798e-01  1.38919330e+00  1.67744051e-01  7.98626348e-01
  2.53254603e+00  2.20224891e+00 -9.08369385e-01  1.36319705e+00  2.46528797e+00
 -3.61809494e-01 -1.50041034e+00 -2.32393587e+00 -4.98118709e-01 -1.23571105e+00
 -5.06404507e-02  6.02758549e-01 -2.64468366e+00 -2.22354528e+00 -2.58382707e+00
 -1.33874763e+00 -4.09462838e+00  6.53478929e-02 -2.15617927e+00  6.22248130e-03
  4.71705221e-01  4.57164806e+00  7.37231523e-01  2.78537619e+00  2.30475410e+00
  1.66783888e+00 -2.89207005e+00  1.66624802e+00  4.01653741e+00 -6.32059544e-01
  2.33062972e+00 -1.67218192e-01  1.20789044e-01 -4.65668574e+00 -1.50035912e-01
  2.67181246e+00 -2.52333619e+00 -3.41777056e+00 -7.22068641e-01  2.48469764e+00
  3.07505995e+00 -2.08516780e+00 -2.48117061e+00  3.95077509e+00  1.04970694e+00
 -1.82141790e+00
Integer atomic weights                     I   N=          17
          14          12          12          12          12          12
           1           1           1           1           1           1
           1           1           1           1           1
Real atomic weights                        R   N=          17
  1.40030740e+01  1.20000000e+01  1.20000000e+01  1.20000000e+01  1.20000000e+01
  1.20000000e+01  1.00782503e+00  1.00782503e+00  1.00782503e+00  1.00782503e+00
  1.00782503e+00  1.00782503e+00  1.00782503e+00  1.00782503e+00  1.00782503e+00
  1.00782503e+00  1.00782503e+00
Number of primitive shells                 I              146
Number of contracted shells                I               70
Pure/Cartesian d shells                    I                1
Pure/Cartesian f shells                    I                1
Highest angular momentum                   I                2
Largest degree of contraction              I                6
Shell types                                I   N=          70
           0           0           1           0           1           2
           0           1           0           0           1           0
           1           2           0           1           0           0
           1           0           1           2           0           1
           0           0           1           0           1           2
           0           1           0           0           1           0
           1           2           0           1           0           0
           1           0           1           2           0           1
           0           0           0           0           0           0
           0           0           0           0           0           0
           0           0           0           0           0           0
           0           0           0           0
Number of primitives per shell             I   N=          70
           6           3           3           1           1           1
           1           1           6           3           3           1
           1           1           1           1           6           3
           3           1           1           1           1           1
           6           3           3           1           1           1
           1           1           6           3           3           1
           1           1           1           1           6           3
           3           1           1           1           1           1
           3           1           3           1           3           1
           3           1           3           1           3           1
           3           1           3           1           3           1
           3           1           3           1
Shell to atom map                          I   N=          70
           1           1           1           1           1           1
           1           1           2           2           2           2
           2           2           2           2           3           3
           3           3           3           3           3           3
           4           4           4           4           4           4
           4           4           5           5           5           5
           5           5           5           5           6           6
           6           6           6           6           6           6
           7           7           8           8           9           9
          10          10          11          11          12          12
          13          13          14          14          15          15
          16          16          17          17
Primitive exponents                        R   N=         146
  4.17351100e+03  6.27457900e+02  1.42902100e+02  4.02343300e+01  1.28202100e+01
  4.39043700e+00  1.16263580e+01  2.71628000e+00  7.72218000e-01  1.16263580e+01
  2.71628000e+00  7.72218000e-01  2.12031300e-01  2.12031300e-01  8.00000000e-01
  6.39000000e-02  6.39000000e-02  3.04752490e+03  4.57369510e+02  1.03948690e+02
  2.92101550e+01  9.28666300e+00  3.16392700e+00  7.86827240e+00  1.88128850e+00
  5.44249300e-01  7.86827240e+00  1.88128850e+00  5.44249300e-01  1.68714400e-01
  1.68714400e-01  8.00000000e-01  4.38000000e-02  4.38000000e-02  3.04752490e+03
  4.57369510e+02  1.03948690e+02  2.92101550e+01  9.28666300e+00  3.16392700e+00
  7.86827240e+00  1.88128850e+00  5.44249300e-01  7.86827240e+00  1.88128850e+00
  5.44249300e-01  1.68714400e-01  1.68714400e-01  8.00000000e-01  4.38000000e-02
  4.38000000e-02  3.04752490e+03  4.57369510e+02  1.03948690e+02  2.92101550e+01
  9.28666300e+00  3.16392700e+00  7.86827240e+00  1.88128850e+00  5.44249300e-01
  7.86827240e+00  1.88128850e+00  5.44249300e-01  1.68714400e-01  1.68714400e-01
  8.00000000e-01  4.38000000e-02  4.38000000e-02  3.04752490e+03  4.57369510e+02
  1.03948690e+02  2.92101550e+01  9.28666300e+00  3.16392700e+00  7.86827240e+00
  1.88128850e+00  5.44249300e-01  7.86827240e+00  1.88128850e+00  5.44249300e-01
  1.68714400e-01  1.68714400e-01  8.00000000e-01  4.38000000e-02  4.38000000e-02
  3.04752490e+03  4.57369510e+02  1.03948690e+02  2.92101550e+01  9.28666300e+00
  3.16392700e+00  7.86827240e+00  1.88128850e+00  5.44249300e-01  7.86827240e+00
  1.88128850e+00  5.44249300e-01  1.68714400e-01  1.68714400e-01  8.00000000e-01
  4.38000000e-02  4.38000000e-02  1.87311370e+01  2.82539370e+00  6.40121700e-01
  1.61277800e-01  1.87311370e+01  2.82539370e+00  6.40121700e-01  1.61277800e-01
  1.87311370e+01  2.82539370e+00  6.40121700e-01  1.61277800e-01  1.87311370e+01
  2.82539370e+00  6.40121700e-01  1.61277800e-01  1.87311370e+01  2.82539370e+00
  6.40121700e-01  1.61277800e-01  1.87311370e+01  2.82539370e+00  6.40121700e-01
  1.61277800e-01  1.87311370e+01  2.82539370e+00  6.40121700e-01  1.61277800e-01
  1.87311370e+01  2.82539370e+00  6.40121700e-01  1.61277800e-01  1.87311370e+01
  2.82539370e+00  6.40121700e-01  1.61277800e-01  1.87311370e+01  2.82539370e+00
  6.40121700e-01  1.61277800e-01  1.87311370e+01  2.82539370e+00  6.40121700e-01
  1.61277800e-01
Contraction coefficients                   R   N=         146
  1.83479944e-03  1.39949958e-02  6.85869792e-02  2.32240930e-01  4.69069858e-01
  3.60454891e-01 -1.14961023e-01 -1.69118034e-01  1.14585223e+00  6.75800232e-02
  3.23907111e-01  7.40895255e-01  1.00000000e+00  1.00000000e+00  1.00000000e+00
  1.00000000e+00  1.00000000e+00  1.83470016e-03  1.40373012e-02  6.88426061e-02
  2.32184421e-01  4.67941342e-01  3.62312032e-01 -1.19332409e-01 -1.60854212e-01
  1.14345648e+00  6.89990956e-02  3.16423980e-01  7.44308252e-01  1.00000000e+00
  1.00000000e+00  1.00000000e+00  1.00000000e+00  1.00000000e+00  1.83470016e-03
  1.40373012e-02  6.88426061e-02  2.32184421e-01  4.67941342e-01  3.62312032e-01
 -1.19332409e-01 -1.60854212e-01  1.14345648e+00  6.89990956e-02  3.16423980e-01
  7.44308252e-01  1.00000000e+00  1.00000000e+00  1.00000000e+00  1.00000000e+00
  1.00000000e+00  1.83470016e-03  1.40373012e-02  6.88426061e-02  2.32184421e-01
  4.67941342e-01  3.62312032e-01 -1.19332409e-01 -1.60854212e-01  1.14345648e+00
  6.89990956e-02  3.16423980e-01  7.44308252e-01  1.00000000e+00  1.00000000e+00
  1.00000000e+00  1.00000000e+00  1.00000000e+00  1.83470016e-03  1.40373012e-02
  6.88426061e-02  2.32184421e-01  4.67941342e-01  3.62312032e-01 -1.19332409e-01
 -1.60854212e-01  1.14345648e+00  6.89990956e-02  3.16423980e-01  7.44308252e-01
  1.00000000e+00  1.00000000e+00  1.00000000e+00  1.00000000e+00  1.00000000e+00
  1.83470016e-03  1.40373012e-02  6.88426061e-02  2.32184421e-01  4.67941342e-01
  3.62312032e-01 -1.19332409e-01 -1.60854212e-01  1.14345648e+00  6.89990956e-02
  3.16423980e-01  7.44308252e-01  1.00000000e+00  1.00000000e+00  1.00000000e+00
  1.00000000e+00  1.00000000e+00  3.34945995e-02  2.34726947e-01  8.13757318e-01
  1.00000000e+00  3.34945995e-02  2.34726947e-01  8.13757318e-01  1.00000000e+00
  3.34945995e-02  2.34726947e-01  8.13757318e-01  1.00000000e+00  3.34945995e-02
  2.34726947e-01  8.13757318e-01  1.00000000e+00  3.34945995e-02  2.34726947e-01
  8.13757318e-01  1.00000000e+00  3.34945995e-02  2.34726947e-01  8.13757318e-01
  1.00000000e+00  3.34945995e-02  2.34726947e-01  8.13757318e-01  1.00000000e+00
  3.34945995e-02  2.34726947e-01  8.13757318e-01  1.00000000e+00  3.34945995e-02
  2.34726947e-01  8.13757318e-01  1.00000000e+00  3.34945995e-02  2.34726947e-01
  8.13757318e-01  1.00000000e+00  3.34945995e-02  2.34726947e-01  8.13757318e-01
  1.00000000e+00
Coordinates of each shell                  R   N=         210
 -2.35344976e+00  4.40410798e-01  1.38919330e+00 -2.35344976e+00  4.40410798e-01
  1.38919330e+00 -2.35344976e+00  4.40410798e-01  1.38919330e+00 -2.35344976e+00
  4.40410798e-01  1.38919330e+00 -2.35344976e+00  4.40410798e-01  1.38919330e+00
 -2.35344976e+00  4.40410798e-01  1.38919330e+00 -2.35344976e+00  4.40410798e-01
  1.38919330e+00 -2.35344976e+00  4.40410798e-01  1.38919330e+00  1.67744051e-01
  7.98626348e-01  2.53254603e+00  1.67744051e-01  7.98626348e-01  2.53254603e+00
  1.67744051e-01  7.98626348e-01  2.53254603e+00  1.67744051e-01  7.98626348e-01
  2.53254603e+00  1.67744051e-01  7.98626348e-01  2.53254603e+00  1.67744051e-01
  7.98626348e-01  2.53254603e+00  1.67744051e-01  7.98626348e-01  2.53254603e+00
  1.67744051e-01  7.98626348e-01  2.53254603e+00  2.20224891e+00 -9.08369385e-01
  1.36319705e+00  2.20224891e+00 -9.08369385e-01  1.36319705e+00  2.20224891e+00
 -9.08369385e-01  1.36319705e+00  2.20224891e+00 -9.08369385e-01  1.36319705e+00
  2.20224891e+00 -9.08369385e-01  1.36319705e+00  2.20224891e+00 -9.08369385e-01
  1.36319705e+00  2.20224891e+00 -9.08369385e-01  1.36319705e+00  2.20224891e+00
 -9.08369385e-01  1.36319705e+00  2.46528797e+00 -3.61809494e-01 -1.50041034e+00
  2.46528797e+00 -3.61809494e-01 -1.50041034e+00  2.46528797e+00 -3.61809494e-01
 -1.50041034e+00  2.46528797e+00 -3.61809494e-01 -1.50041034e+00  2.46528797e+00
 -3.61809494e-01 -1.50041034e+00  2.46528797e+00 -3.61809494e-01 -1.50041034e+00
  2.46528797e+00 -3.61809494e-01 -1.50041034e+00  2.46528797e+00 -3.61809494e-01
 -1.50041034e+00 -2.32393587e+00 -4.98118709e-01 -1.23571105e+00 -2.32393587e+00
 -4.98118709e-01 -1.23571105e+00 -2.32393587e+00 -4.98118709e-01 -1.23571105e+00
 -2.32393587e+00 -4.98118709e-01 -1.23571105e+00 -2.32393587e+00 -4.98118709e-01
 -1.23571105e+00 -2.32393587e+00 -4.98118709e-01 -1.23571105e+00 -2.32393587e+00
 -4.98118709e-01 -1.23571105e+00 -2.32393587e+00 -4.98118709e-01 -1.23571105e+00
 -5.06404507e-02  6.02758549e-01 -2.64468366e+00 -5.06404507e-02  6.02758549e-01
 -2.64468366e+00 -5.06404507e-02  6.02758549e-01 -2.64468366e+00 -5.06404507e-02
  6.02758549e-01 -2.64468366e+00 -5.06404507e-02  6.02758549e-01 -2.64468366e+00
 -5.06404507e-02  6.02758549e-01 -2.64468366e+00 -5.06404507e-02  6.02758549e-01
 -2.64468366e+00 -5.06404507e-02  6.02758549e-01 -2.64468366e+00 -2.22354528e+00
 -2.58382707e+00 -1.33874763e+00 -2.22354528e+00 -2.58382707e+00 -1.33874763e+00
 -4.09462838e+00  6.53478929e-02 -2.15617927e+00 -4.09462838e+00  6.53478929e-02
 -2.15617927e+00  6.22248130e-03  4.71705221e-01  4.57164806e+00  6.22248130e-03
  4.71705221e-01  4.57164806e+00  7.37231523e-01  2.78537619e+00  2.30475410e+00
  7.37231523e-01  2.78537619e+00  2.30475410e+00  1.66783888e+00 -2.89207005e+00
  1.66624802e+00  1.66783888e+00 -2.89207005e+00  1.66624802e+00  4.01653741e+00
 -6.32059544e-01  2.33062972e+00  4.01653741e+00 -6.32059544e-01  2.33062972e+00
 -1.67218192e-01  1.20789044e-01 -4.65668574e+00 -1.67218192e-01  1.20789044e-01
 -4.65668574e+00 -1.50035912e-01  2.67181246e+00 -2.52333619e+00 -1.50035912e-01
  2.67181246e+00 -2.52333619e+00 -3.41777056e+00 -7.22068641e-01  2.48469764e+00
 -3.41777056e+00 -7.22068641e-01  2.48469764e+00  3.07505995e+00 -2.08516780e+00
 -2.48117061e+00  3.07505995e+00 -2.08516780e+00 -2.48117061e+00  3.95077509e+00
  1.04970694e+00 -1.82141790e+00  3.95077509e+00  1.04970694e+00 -1.82141790e+00
Total Energy                               R     -2.519019857344169e+02
Alpha Orbital Energies                     R   N=         136
 -1.43165707e+01 -1.02058339e+01 -1.02056121e+01 -1.01840504e+01 -1.01826569e+01
 -1.01824308e+01 -9.00850179e-01 -7.80495065e-01 -7.46716415e-01 -6.35579188e-01
 -6.27561057e-01 -5.35355734e-01 -5.06609937e-01 -4.83566620e-01 -4.36337287e-01
 -4.08486997e-01 -3.98588651e-01 -3.91984350e-01 -3.81124714e-01 -3.62643263e-01
 -3.32950646e-01 -3.15252746e-01 -3.10852399e-01 -2.12746843e-01  3.38809197e-03
  1.90701834e-02  2.50579836e-02  2.88210492e-02  4.38786194e-02  5.34824912e-02
  6.01439927e-02  6.50799045e-02  7.04984539e-02  9.44567571e-02  9.62750368e-02
  1.04040255e-01  1.05810300e-01  1.13717740e-01  1.19196236e-01  1.24302183e-01
  1.57853630e-01  1.61157195e-01  1.65530682e-01  1.71538645e-01  1.87652450e-01
  1.95994873e-01  2.03730782e-01  2.10432058e-01  2.21542514e-01  2.32115549e-01
  2.37674538e-01  2.46779313e-01  2.51752952e-01  2.64422702e-01  2.72113909e-01
  2.90884900e-01  3.02584282e-01  3.28330300e-01  3.38974122e-01  3.53811380e-01
  3.66267505e-01  3.75488589e-01  3.81806855e-01  3.95847613e-01  4.15894620e-01
  6.24294865e-01  6.41778378e-01  6.43887515e-01  6.63269996e-01  6.74477841e-01
  6.80184339e-01  7.00618887e-01  7.34489316e-01  7.39908690e-01  7.53282249e-01
  7.58690360e-01  7.98087672e-01  8.49349623e-01  8.73798662e-01  9.35306284e-01
  9.57995902e-01  9.73662420e-01  9.84092189e-01  9.93491092e-01  1.02067572e+00
  1.03953704e+00  1.06255962e+00  1.08874482e+00  1.09831293e+00  1.11443837e+00
  1.12284129e+00  1.13122357e+00  1.17198583e+00  1.18017743e+00  1.23686050e+00
  1.36337987e+00  1.38427189e+00  1.44842850e+00  1.47982408e+00  1.50217819e+00
  1.59266805e+00  1.63853601e+00  1.74722183e+00  1.75377823e+00  1.79822368e+00
  1.84616193e+00  1.90178811e+00  1.93954373e+00  1.94673805e+00  1.99279236e+00
  2.04279685e+00  2.05547022e+00  2.10429048e+00  2.13009555e+00  2.15965432e+00
  2.21377451e+00  2.28327636e+00  2.32621949e+00  2.33476652e+00  2.41146140e+00
  2.42380786e+00  2.47483106e+00  2.50463397e+00  2.52299577e+00  2.55801079e+00
  2.66561916e+00  2.71719186e+00  2.76393276e+00  2.79417799e+00  2.85037975e+00
  4.07741759e+00  4.19508296e+00  4.31228564e+00  4.47221865e+00  4.50156509e+00
  4.73822978e+00
Alpha MO coefficients                      R   N=       18496
  9.92689005e-01  3.46981258e-02  4.78405976e-04 -1.05056704e-03  5.03673032e-05
  3.55516429e-03 -6.74124083e-04  1.01477338e-03  1.48148055e-04 -8.35886455e-03
 -8.24607837e-03 -8.36699249e-03  1.14210309e-05 -3.67911885e-05 -7.33740382e-05
 -4.42373868e-03 -2.33207028e-05 -4.32103641e-04  4.08381407e-04 -3.63502216e-05
 -7.08403982e-05 -2.54640491e-04 -3.49108667e-05 -1.13239563e-04  1.01374166e-03
 -7.46077270e-06 -4.50510839e-04 -2.61212393e-04  1.06903846e-04 -6.60557332e-05
 -3.03170279e-05  3.96076553e-05  9.17712327e-05  5.22510369e-05  7.53180312e-04
 -5.57258215e-04  2.09423179e-04 -3.38020318e-04  4.10242429e-06  6.79741916e-05
  3.46282816e-05 -1.34476892e-05 -7.63750667e-06 -3.63226835e-04  2.46142466e-04
 -1.18112613e-04 -1.63579116e-04 -5.87364248e-05 -6.95914119e-06  9.46426334e-07
  1.91182804e-05  9.36445476e-06  4.43679926e-06 -7.06180873e-04  9.86262842e-05
  1.50144372e-04  4.67006353e-04  8.84394262e-06  2.31570445e-05 -2.70772952e-05
 -1.25804097e-05  8.62284921e-06  9.00472491e-06 -5.01843566e-05  1.55907465e-04
 -6.65060616e-05  2.12888129e-05  2.82707565e-05  1.20383342e-05  1.95527714e-06
  4.07937463e-06  4.25033651e-06 -9.50237174e-04  3.83132494e-04 -2.84092993e-04
  4.07558870e-04 -3.57152663e-05 -6.61315904e-05 -9.99469816e-06  1.13893709e-04
  2.46080377e-04  1.02946814e-03  3.27829465e-04 -1.95999403e-04  4.20602423e-04
 -8.31731253e-05 -5.06412909e-05  1.43421034e-04  2.33583155e-05  5.37506056e-06
  7.12462513e-05  5.44250904e-03  9.44327793e-04  9.41949534e-04  2.82756978e-04
  1.07262825e-05  9.63325599e-05  3.24037764e-05 -7.89465914e-07 -1.68374622e-05
 -3.95276528e-04 -6.59060895e-05  8.08073699e-05 -2.02928609e-04  3.93621978e-06
  1.27655441e-06 -3.95508123e-05 -6.92001125e-08  2.81278008e-05  1.72682471e-05
 -1.97277494e-03  1.17737432e-03 -6.18159040e-05 -4.47747376e-04 -6.93587046e-05
 -3.47199055e-04  1.05148959e-05  3.60785369e-05 -5.24681671e-05  1.09607020e-05
 -2.46441251e-05  1.37273389e-04  1.53772007e-05  3.86682606e-05  1.12684232e-05
  1.44315666e-05  1.01674995e-05 -5.36043687e-05  1.63841363e-05  1.15413296e-04
  2.84596555e-04  3.72675250e-05 -1.66900487e-06  1.25964823e-04 -2.60579669e-05
  4.81989161e-05 -1.47249337e-04 -3.30920611e-04 -8.61697218e-05  4.18816003e-05
 -4.90623109e-05  5.24629607e-03  2.01821942e-03 -4.86690996e-04  2.07053112e-04
 -4.14093474e-04 -1.65817281e-04 -1.53577808e-04 -3.52287077e-05 -2.21375981e-04
 -3.68313164e-05  1.22404461e-02  3.11793048e-03 -4.66566798e-04  1.59381714e-03
  9.93193837e-01  5.04835715e-02 -3.60769060e-04 -7.08520019e-05 -2.96137148e-04
 -2.39568496e-02  5.54354410e-04  1.28868661e-03  2.28870428e-03 -8.76650122e-03
 -8.66695958e-03 -8.59653782e-03  4.96390278e-05 -3.79072241e-05 -1.34249885e-04
 -2.91089882e-02 -9.58901705e-04  3.78150447e-03  4.64587756e-03  4.26939161e-03
 -2.65401419e-04 -5.90371600e-06  2.49239180e-06 -4.86354388e-05  6.94145045e-03
 -2.37625265e-03  1.47731262e-03  9.97493067e-04 -2.82101304e-04 -2.68368957e-04
 -2.79341233e-04  8.24673359e-05  8.05293101e-05 -1.03663868e-04  2.63518730e-02
 -5.14673667e-03  3.33738353e-03 -2.16794609e-04 -4.70323420e-05  3.28258594e-05
  9.37723078e-05 -6.91750800e-05 -1.08111765e-04 -2.08581277e-03  1.01016320e-03
 -1.01142417e-05 -5.06538561e-05 -7.59721116e-05 -5.69800917e-05  1.07723833e-05
 -3.14764410e-05 -3.03783681e-05  2.31818257e-05 -1.44761173e-02  2.93381108e-03
 -9.17080236e-04 -6.70397076e-04  2.85107450e-03  3.68269263e-04 -1.30506048e-05
 -6.87743011e-05 -1.32349187e-05 -3.30235136e-03 -1.22070730e-03 -4.44789939e-04
 -8.64852322e-04  7.22698511e-05 -2.56687167e-05  1.35293137e-05 -4.49558199e-05
  2.41516182e-05  1.26331912e-05 -8.68205150e-03 -3.05206245e-03 -3.70476536e-04
  5.02266423e-04 -3.27280840e-04 -5.57331258e-04 -5.74399725e-05 -6.72360984e-05
 -1.95081874e-04  3.23630225e-03  2.18570775e-04  1.76008877e-05  1.92064917e-03
 -1.28433851e-04 -1.63962336e-04 -1.09744801e-04 -2.58708578e-05 -9.15102218e-06
 -7.12101722e-05  1.92489717e-02  7.62080476e-04 -1.39008720e-03  3.63948896e-03
  1.88999982e-04 -3.40944939e-04  1.46358186e-05 -2.18961534e-04 -2.48947039e-05
  3.19999110e-03  6.51353776e-05  3.93379673e-03 -1.73672762e-04 -1.24989650e-03
 -1.39324861e-04 -6.30264480e-04  5.06517706e-05  1.80502824e-04 -1.45445851e-04
 -1.15259688e-03 -1.54902832e-04 -1.14764354e-03  7.94601348e-05  9.49698743e-06
  8.87710586e-05 -4.40411788e-04 -1.41575707e-04 -3.10802579e-04 -1.84857915e-05
  6.94596808e-05  7.50521328e-05  5.06768334e-03  9.41448580e-04 -9.79774077e-04
 -1.63747968e-03 -5.13797663e-05 -1.97834578e-04 -4.46793946e-04  1.57922639e-05
 -2.93959623e-05 -1.68799201e-04  1.18616804e-02  3.88269642e-05 -1.63568663e-03
 -3.33524406e-03 -2.74613806e-03  9.61582640e-05  3.30385671e-05  3.14834815e-05
  1.80239240e-05 -3.26543700e-03  1.31520466e-04  9.86670509e-04  1.26189461e-03
  6.48407840e-05  1.66495330e-05  1.22868721e-04 -4.52964030e-06 -3.37291431e-06
 -1.76542220e-05 -1.06766444e-02 -2.49143090e-03  1.93236554e-03  2.47032391e-03
 -3.70036991e-04 -5.73092838e-04  1.47358639e-04  5.94107925e-05  1.18721732e-04
  3.47750221e-03 -1.63258440e-03  1.81907132e-04 -8.16185902e-04 -1.24583900e-04
 -1.66681289e-04 -1.32316157e-04 -6.37103259e-05 -1.13724262e-05 -4.34082931e-05
  2.00622775e-02 -2.87028376e-03  1.89584957e-03 -1.71295123e-03 -5.86734069e-05
  1.83418859e-05  1.54703479e-04  4.63675424e-05 -4.08294135e-05 -1.94084445e-03
  4.65387428e-04 -3.04494742e-04 -7.84837370e-04  1.23120370e-05 -7.25487171e-05
 -7.47407908e-05  1.56151484e-05  1.19383147e-05 -2.69233552e-05 -1.36783388e-02
  2.01882133e-03 -1.28166401e-04 -2.07035401e-03  9.93191026e-01  5.04605670e-02
  1.79929912e-04  7.76701643e-05  4.55933696e-04 -2.38582297e-02 -2.28734395e-03
 -9.85776310e-04 -1.44742135e-03 -8.65058364e-03 -8.62740770e-03 -8.75092989e-03
 -1.26297472e-04  6.26719285e-05 -3.08609615e-05 -2.85532394e-02 -5.16828296e-03
 -2.72110207e-03 -1.18122675e-03  4.51291644e-03 -2.46481742e-04  4.26466534e-05
 -2.93675594e-06  2.08267838e-05  6.99204749e-03 -2.21476019e-03 -8.92053371e-04
  1.82378348e-03 -3.81970693e-04 -2.21711077e-04 -2.32546806e-04 -9.58121049e-05
  7.26249457e-05  1.22855676e-05  2.62434300e-02 -2.40166535e-03 -2.18491215e-03
  5.03506421e-03  9.17571959e-05  3.90050824e-03 -3.24874297e-05  2.96711841e-03
  3.19751801e-05 -9.63157911e-07  1.33520624e-04 -3.18311557e-04 -1.42065546e-04
 -1.19195465e-03  3.42498689e-05  1.18653409e-04 -1.35055288e-04 -6.24228344e-04
 -1.70545198e-04 -1.20572998e-03 -1.46930763e-04 -7.41740298e-04  8.76808780e-05
 -5.28720893e-04  7.37570029e-05  8.25842964e-05 -7.47808379e-05 -2.83712463e-04
 -7.98876029e-05  1.74885444e-05  4.70715265e-05  1.84237563e-03  8.59733372e-04
 -1.65740792e-04 -5.17452495e-04 -9.80647840e-05 -1.89514794e-04 -1.54422819e-04
 -2.52428501e-06 -5.51850388e-05  3.25845285e-05  4.56451830e-04 -1.24330528e-04
 -7.21326154e-05  4.72419142e-06  2.37904089e-04  2.31403690e-04  1.56291076e-04
 -5.29483396e-06 -8.97067519e-05 -7.28398701e-04  1.43704984e-04 -1.32872670e-04
  6.42293468e-04  6.10887070e-05  5.77091774e-05 -1.61838727e-05 -1.95458177e-07
 -2.62518430e-05  1.40139219e-05  1.07492120e-02  1.58995250e-03 -1.19309636e-03
 -1.88774195e-03 -5.76988501e-02 -2.51676426e-03 -1.56595098e-05  4.02716006e-06
 -2.49253290e-05 -5.02412717e-03 -2.27112149e-04 -1.90691678e-04  2.65017952e-03
  7.30551345e-04  6.87469970e-04  9.13345317e-04 -2.17677289e-05 -6.50536790e-05
 -4.17555870e-05 -2.54129096e-02  3.08713077e-03 -2.94620032e-03  3.41867786e-03
 -9.89167061e-01 -5.03245720e-02  1.07430278e-04 -1.71207243e-05 -6.93992506e-05
  2.22991503e-02 -1.64482710e-03  2.73891180e-04  1.01373857e-03  8.83909386e-03
  8.62585972e-03  8.89212189e-03 -1.01591715e-04  3.03332981e-05 -1.03163774e-04
  2.93971304e-02 -4.39076561e-03  6.65990341e-04  2.56674508e-03  2.91440300e-04
  2.40050879e-04  1.48407017e-04 -2.93458420e-05 -9.24314418e-05 -8.04865026e-04
 -4.59230554e-04  3.63088814e-05 -4.23194564e-04  3.17804244e-05  5.74452411e-05
  2.98381893e-05  1.23612893e-05 -4.94140247e-05  8.46956227e-06  1.04975587e-02
  2.63705906e-03  5.45500949e-04 -7.76665513e-04 -6.70510671e-02 -2.98000116e-03
  1.57803445e-05 -5.49294079e-07  3.14495564e-05 -4.85628846e-03 -2.43549015e-03
  5.76922046e-04 -1.08166020e-03  9.88683549e-04  7.82850328e-04  8.15092319e-04
 -7.78779149e-05  4.34350864e-05 -4.10612699e-05 -2.59551082e-02 -1.15089398e-03
  2.80415485e-03 -4.63185283e-03  1.35113518e-04  8.26443560e-05  2.12530963e-05
 -3.49228643e-04  1.44358329e-05 -3.85836783e-04  1.32083811e-04  1.92739943e-04
  1.43873329e-04  9.14759386e-04  1.26763279e-04  5.75690439e-04  1.23163545e-04
  5.21910026e-04  1.48027701e-04  9.00913083e-04  1.99140980e-05 -1.61938437e-04
  7.24972928e-05 -3.88542862e-03  6.83708006e-05 -3.90757253e-03 -3.29783208e-07
  5.36654134e-06  6.03866482e-05  1.96067748e-05 -8.89164887e-05  1.39204077e-03
  5.02193321e-04 -9.93137752e-05  1.33920170e-04  2.82677643e-05  7.40129906e-05
 -5.29143389e-05 -4.66588906e-05  6.77515208e-05 -1.61088398e-05 -8.08623389e-04
 -6.18261565e-04  6.18717954e-04  4.46712777e-05 -2.21133579e-04  4.91014482e-04
 -4.32634513e-06  8.59769700e-05 -1.60946306e-04 -2.96493734e-03 -8.91452189e-05
  1.18133254e-04  1.76965693e-03  9.78620529e-05  1.45213226e-04  1.18224062e-04
 -1.80946963e-08 -5.20725919e-06 -6.77344938e-05  2.05383473e-03  1.62343853e-04
 -9.64450312e-04 -3.30093624e-04  2.37637560e-02  9.24566135e-04  2.36265512e-05
  6.16806012e-05 -2.90064505e-05  2.94889038e-03 -1.16682564e-03  6.51541884e-04
 -1.13362075e-03 -3.21175785e-04 -1.95976755e-04 -2.78586579e-04 -2.45988430e-05
 -8.18170083e-06 -4.59327398e-06  1.06867951e-02 -3.13901905e-04  6.71207228e-04
 -3.36763552e-03  6.60998578e-02  3.96153459e-03  2.13875282e-06 -5.50378611e-06
 -9.11823054e-05 -9.72712174e-03  3.17251753e-03 -7.69625805e-04  4.67695293e-04
 -2.78611570e-04 -3.56496743e-04 -3.76787112e-04 -6.60230308e-05  1.41809652e-04
 -5.60643303e-05 -1.98575540e-02  2.85297921e-03 -2.18697537e-04 -2.83923506e-03
  4.82566677e-03  6.78986277e-04 -3.61429029e-06  1.54722987e-05 -5.71134368e-05
 -7.17034604e-03 -2.75315207e-03 -1.12390357e-03  1.59886122e-03  2.22486114e-04
  1.40428703e-04  2.36589996e-04  6.14328193e-05 -9.80468003e-05 -7.73663088e-05
 -1.14487373e-02 -2.22319835e-03 -1.46902029e-03  3.90012910e-04 -9.90687176e-01
 -5.06950991e-02  3.13927298e-05  1.49463970e-05 -1.98772923e-04  2.46758352e-02
  1.61607635e-04 -1.14537989e-03  2.59863306e-03  8.89069159e-03  8.68382857e-03
  8.66425448e-03 -3.82542282e-06  1.05432013e-06 -1.44141551e-04  1.96060551e-02
 -5.60901130e-04 -1.29556661e-03  3.19283351e-03  2.04213216e-04  5.64765405e-04
  1.77069418e-04  4.32898481e-04  1.00784262e-05 -6.30932802e-04  2.18263579e-04
  2.69053497e-04 -1.91661563e-04  1.75368134e-05  1.10919943e-05  3.63569307e-05
  6.16605645e-05 -3.65552054e-03 -7.33995062e-05 -4.52337021e-03 -6.59982995e-05
 -7.21907888e-06  2.42614213e-04  8.98017646e-04  1.94871142e-04  7.12020754e-04
 -7.62475925e-06 -4.27081145e-05  8.56706474e-05 -5.39480362e-05  6.55691217e-06
  1.61348740e-03  3.94946571e-04 -1.14603838e-04 -6.94878722e-04 -4.43632097e-05
  3.92601714e-05  4.65943514e-05  2.91609883e-05 -2.96725864e-05 -4.78187798e-05
 -2.09068326e-03 -6.07097703e-04  4.55549074e-05  2.33141673e-04  4.58333193e-03
  7.17226486e-04  6.15859612e-05 -7.98419192e-06  1.80109178e-05 -7.35642583e-03
 -2.48200663e-03  1.89092648e-03  1.75561116e-03  2.67536663e-04  1.85734103e-04
  1.53441083e-04 -1.25632557e-04 -3.73019587e-05  5.19317769e-06 -9.59698087e-03
 -1.18067502e-03  1.42363819e-03  1.35456712e-03 -9.91195914e-01 -5.07461285e-02
  1.54065164e-04  1.54240103e-05  9.76737531e-05  2.49165832e-02 -2.10647503e-03
  1.40639364e-03 -1.63135188e-03  8.67793939e-03  8.72663132e-03  8.85984879e-03
 -1.51627401e-04 -1.01696708e-04 -2.50493926e-05  2.04790187e-02 -2.53885885e-03
  1.79154758e-03 -1.89052532e-03  5.95117990e-02  3.64387465e-03  8.63108048e-05
 -1.66875242e-05  3.26334369e-05 -9.96561484e-03  1.19140430e-03  2.02121539e-04
 -3.12890284e-03 -3.83022821e-04 -3.10016489e-04 -1.17032122e-04  6.46098789e-07
  3.01515050e-05 -6.80077553e-05 -2.08261914e-02  3.61850225e-03 -5.05724751e-04
 -1.90148152e-03 -2.26989263e-05  5.34289844e-04  1.20124220e-04 -9.65151336e-05
  8.00665854e-05 -3.50711751e-03 -1.77194240e-03 -1.01737043e-04 -6.80138336e-04
  1.22158686e-04  1.64365836e-04  1.28303039e-04 -5.99844662e-05  2.51393319e-06
 -5.75650966e-05  4.22599181e-04  2.49775952e-04  4.55255487e-04  1.19176796e-04
 -1.99600588e-02 -1.32068812e-03  1.78323828e-05 -6.85611070e-05  2.77937445e-06
  4.12257878e-03  2.24342572e-04 -6.22288826e-04  1.73767692e-03  1.23999219e-04
  1.74931415e-04  7.38356036e-05  2.47150735e-05  1.81502956e-07 -4.82411949e-05
  1.12246053e-02  2.04425648e-03 -1.02910398e-03  1.97287113e-03  2.27877776e-04
  3.55192328e-04  1.24542460e-05 -4.74867316e-04  1.74541852e-04  3.20647413e-04
  2.35942924e-04  5.50433233e-04 -7.79074200e-05 -4.51904411e-03  7.24211032e-05
 -3.69228043e-03  8.94764069e-06 -1.14642073e-04 -2.01277351e-04 -1.28212782e-04
 -1.02108570e-04  6.52857819e-04  2.09790462e-04  7.73366555e-04  2.49653058e-04
  8.44391838e-04  1.63377996e-01 -3.33663820e-01 -4.61754436e-02  6.15364510e-02
  1.00060610e-02 -3.56494803e-01 -2.41344175e-02  3.63191482e-02  3.13237386e-03
 -1.79606982e-04  8.26144022e-03 -2.34890015e-03 -6.62796883e-03  1.53997468e-03