Generated by Psi4
     FORCE                           RHF                       TESTBAS
Number of atoms                            I               17
Charge                                     I                0
Multiplicity                               I                1
Number of electrons                        I               78
Number of alpha electrons                  I               39
Number of beta electrons                   I               39
Number of basis functions                  I              221
Number of independent functions            I              221
Atomic numbers                             I   N=          17
           6           6           6           6           6           6
           1           1           1           8           6           8
           1           1           6           8           1
Nuclear charges                            R   N=          17
  6.00000000e+00  6.00000000e+00  6.00000000e+00  6.00000000e+00  6.00000000e+00
  6.00000000e+00  1.00000000e+00  1.00000000e+00  1.00000000e+00  8.00000000e+00
  6.00000000e+00  8.00000000e+00  1.00000000e+00  1.00000000e+00  6.00000000e+00
  8.00000000e+00  1.00000000e+00
Current cartesian coordinates              R   N=          51
 -1.18757353e+00 -2.67085060e-01  2.57994120e+00  1.22878794e+00  7.92559896e-01
  2.86951618e+00  2.78501504e+00  1.26308625e+00  7.81241971e-01  1.82193266e+00
  6.32147111e-01 -1.57307714e+00 -5.75920730e-01 -4.20777053e-01 -1.87588438e+00
 -2.13098598e+00 -8.95951364e-01  1.56767140e-01  1.87139700e+00  1.24369199e+00
  4.76453222e+00 -3.99766788e+00 -1.71599270e+00 -8.33641242e-02  4.65467858e+00
  2.08068190e+00  9.80358726e-01 -1.03088711e+00 -8.49925256e-01 -4.39872670e+00
  1.18734837e+00 -2.71545886e-02 -5.72313257e+00  2.95758403e+00  9.02920338e-01
 -3.87860023e+00  6.89437862e-01  1.50592623e+00 -7.01978629e+00  2.02907463e+00
 -1.62995447e+00 -6.72426529e+00 -2.79544735e+00 -7.46618201e-01  4.80854378e+00
 -2.21294047e+00 -2.94163945e-01  6.99256768e+00 -4.67086380e+00 -1.58854618e+00
  4.37416297e+00
Integer atomic weights                     I   N=          17
          12          12          12          12          12          12
           1           1           1          15          12          15
           1           1          12          15           1
Real atomic weights                        R   N=          17
  1.20000000e+01  1.20000000e+01  1.20000000e+01  1.20000000e+01  1.20000000e+01
  1.20000000e+01  1.00782503e+00  1.00782503e+00  1.00782503e+00  1.59949146e+01
  1.20000000e+01  1.59949146e+01  1.00782503e+00  1.00782503e+00  1.20000000e+01
  1.59949146e+01  1.00782503e+00
Number of primitive shells                 I              211
Number of contracted shells                I              100
Pure/Cartesian d shells                    I                1
Pure/Cartesian f shells                    I                1
Highest angular momentum                   I                2
Largest degree of contraction              I                6
Shell types                                I   N=         100
           0           0           1           0           1           2
           0           1           0           0           1           0
           1           2           0           1           0           0
           1           0           1           2           0           1
           0           0           1           0           1           2
           0           1           0           0           1           0
           1           2           0           1           0           0
           1           0           1           2           0           1
           0           0           0           0           0           0
           0           0           1           0           1           2
           0           1           0           0           1           0
           1           2           0           1           0           0
           1           0           1           2           0           1
           0           0           0           0           0           0
           1           0           1           2           0           1
           0           0           1           0           1           2
           0           1           0           0
Number of primitives per shell             I   N=         100
           6           3           3           1           1           1
           1           1           6           3           3           1
           1           1           1           1           6           3
           3           1           1           1           1           1
           6           3           3           1           1           1
           1           1           6           3           3           1
           1           1           1           1           6           3
           3           1           1           1           1           1
           3           1           3           1           3           1
           6           3           3           1           1           1
           1           1           6           3           3           1
           1           1           1           1           6           3
           3           1           1           1           1           1
           3           1           3           1           6           3
           3           1           1           1           1           1
           6           3           3           1           1           1
           1           1           3           1
Shell to atom map                          I   N=         100
           1           1           1           1           1           1
           1           1           2           2           2           2
           2           2           2           2           3           3
           3           3           3           3           3           3
           4           4           4           4           4           4
           4           4           5           5           5           5
           5           5           5           5           6           6
           6           6           6           6           6           6
           7           7           8           8           9           9
          10          10          10          10          10          10
          10          10          11          11          11          11
          11          11          11          11          12          12
          12          12          12          12          12          12
          13          13          14          14          15          15
          15          15          15          15          15          15
          16          16          16          16          16          16
          16          16          17          17
Primitive exponents                        R   N=         211
  3.04752490e+03  4.57369510e+02  1.03948690e+02  2.92101550e+01  9.28666300e+00
  3.16392700e+00  7.86827240e+00  1.88128850e+00  5.44249300e-01  7.86827240e+00
  1.88128850e+00  5.44249300e-01  1.68714400e-01  1.68714400e-01  8.00000000e-01
  4.38000000e-02  4.38000000e-02  3.04752490e+03  4.57369510e+02  1.03948690e+02
  2.92101550e+01  9.28666300e+00  3.16392700e+00  7.86827240e+00  1.88128850e+00
  5.44249300e-01  7.86827240e+00  1.88128850e+00  5.44249300e-01  1.68714400e-01
  1.68714400e-01  8.00000000e-01  4.38000000e-02  4.38000000e-02  3.04752490e+03
  4.57369510e+02  1.03948690e+02  2.92101550e+01  9.28666300e+00  3.16392700e+00
  7.86827240e+00  1.88128850e+00  5.44249300e-01  7.86827240e+00  1.88128850e+00
  5.44249300e-01  1.68714400e-01  1.68714400e-01  8.00000000e-01  4.38000000e-02
  4.38000000e-02  3.04752490e+03  4.57369510e+02  1.03948690e+02  2.92101550e+01
  9.28666300e+00  3.16392700e+00  7.86827240e+00  1.88128850e+00  5.44249300e-01
  7.86827240e+00  1.88128850e+00  5.44249300e-01  1.68714400e-01  1.68714400e-01
  8.00000000e-01  4.38000000e-02  4.38000000e-02  3.04752490e+03  4.57369510e+02
  1.03948690e+02  2.92101550e+01  9.28666300e+00  3.16392700e+00  7.86827240e+00
  1.88128850e+00  5.44249300e-01  7.86827240e+00  1.88128850e+00  5.44249300e-01
  1.68714400e-01  1.68714400e-01  8.00000000e-01  4.38000000e-02  4.38000000e-02
  3.04752490e+03  4.57369510e+02  1.03948690e+02  2.92101550e+01  9.28666300e+00
  3.16392700e+00  7.86827240e+00  1.88128850e+00  5.44249300e-01  7.86827240e+00
  1.88128850e+00  5.44249300e-01  1.68714400e-01  1.68714400e-01  8.00000000e-01
  4.38000000e-02  4.38000000e-02  1.87311370e+01  2.82539370e+00  6.40121700e-01
  1.61277800e-01  1.87311370e+01  2.82539370e+00  6.40121700e-01  1.61277800e-01
  1.87311370e+01  2.82539370e+00  6.40121700e-01  1.61277800e-01  5.48467170e+03
  8.25234950e+02  1.88046960e+02  5.29645000e+01  1.68975700e+01  5.79963530e+00
  1.55396160e+01  3.59993360e+00  1.01376180e+00  1.55396160e+01  3.59993360e+00
  1.01376180e+00  2.70005800e-01  2.70005800e-01  8.00000000e-01  8.45000000e-02
  8.45000000e-02  3.04752490e+03  4.57369510e+02  1.03948690e+02  2.92101550e+01
  9.28666300e+00  3.16392700e+00  7.86827240e+00  1.88128850e+00  5.44249300e-01
  7.86827240e+00  1.88128850e+00  5.44249300e-01  1.68714400e-01  1.68714400e-01
  8.00000000e-01  4.38000000e-02  4.38000000e-02  5.48467170e+03  8.25234950e+02
  1.88046960e+02  5.29645000e+01  1.68975700e+01  5.79963530e+00  1.55396160e+01
  3.59993360e+00  1.01376180e+00  1.55396160e+01  3.59993360e+00  1.01376180e+00
  2.70005800e-01  2.70005800e-01  8.00000000e-01  8.45000000e-02  8.45000000e-02
  1.87311370e+01  2.82539370e+00  6.40121700e-01  1.61277800e-01  1.87311370e+01
  2.82539370e+00  6.40121700e-01  1.61277800e-01  3.04752490e+03  4.57369510e+02
  1.03948690e+02  2.92101550e+01  9.28666300e+00  3.16392700e+00  7.86827240e+00
  1.88128850e+00  5.44249300e-01  7.86827240e+00  1.88128850e+00  5.44249300e-01
  1.68714400e-01  1.68714400e-01  8.00000000e-01  4.38000000e-02  4.38000000e-02
  5.48467170e+03  8.25234950e+02  1.88046960e+02  5.29645000e+01  1.68975700e+01
  5.79963530e+00  1.55396160e+01  3.59993360e+00  1.01376180e+00  1.55396160e+01
  3.59993360e+00  1.01376180e+00  2.70005800e-01  2.70005800e-01  8.00000000e-01
  8.45000000e-02  8.45000000e-02  1.87311370e+01  2.82539370e+00  6.40121700e-01
  1.61277800e-01
Contraction coefficients                   R   N=         211
  1.83470016e-03  1.40373012e-02  6.88426061e-02  2.32184421e-01  4.67941342e-01
  3.62312032e-01 -1.19332409e-01 -1.60854212e-01  1.14345648e+00  6.89990956e-02
  3.16423980e-01  7.44308252e-01  1.00000000e+00  1.00000000e+00  1.00000000e+00
  1.00000000e+00  1.00000000e+00  1.83470016e-03  1.40373012e-02  6.88426061e-02
  2.32184421e-01  4.67941342e-01  3.62312032e-01 -1.19332409e-01 -1.60854212e-01
  1.14345648e+00  6.89990956e-02  3.16423980e-01  7.44308252e-01  1.00000000e+00
  1.00000000e+00  1.00000000e+00  1.00000000e+00  1.00000000e+00  1.83470016e-03
  1.40373012e-02  6.88426061e-02  2.32184421e-01  4.67941342e-01  3.62312032e-01
 -1.19332409e-01 -1.60854212e-01  1.14345648e+00  6.89990956e-02  3.16423980e-01
  7.44308252e-01  1.00000000e+00  1.00000000e+00  1.00000000e+00  1.00000000e+00
  1.00000000e+00  1.83470016e-03  1.40373012e-02  6.88426061e-02  2.32184421e-01
  4.67941342e-01  3.62312032e-01 -1.19332409e-01 -1.60854212e-01  1.14345648e+00
  6.89990956e-02  3.16423980e-01  7.44308252e-01  1.00000000e+00  1.00000000e+00
  1.00000000e+00  1.00000000e+00  1.00000000e+00  1.83470016e-03  1.40373012e-02
  6.88426061e-02  2.32184421e-01  4.67941342e-01  3.62312032e-01 -1.19332409e-01
 -1.60854212e-01  1.14345648e+00  6.89990956e-02  3.16423980e-01  7.44308252e-01
  1.00000000e+00  1.00000000e+00  1.00000000e+00  1.00000000e+00  1.00000000e+00
  1.83470016e-03  1.40373012e-02  6.88426061e-02  2.32184421e-01  4.67941342e-01
  3.62312032e-01 -1.19332409e-01 -1.60854212e-01  1.14345648e+00  6.89990956e-02
  3.16423980e-01  7.44308252e-01  1.00000000e+00  1.00000000e+00  1.00000000e+00
  1.00000000e+00  1.00000000e+00  3.34945995e-02  2.34726947e-01  8.13757318e-01
  1.00000000e+00  3.34945995e-02  2.34726947e-01  8.13757318e-01  1.00000000e+00
  3.34945995e-02  2.34726947e-01  8.13757318e-01  1.00000000e+00  1.83109981e-03
  1.39500985e-02  6.84450927e-02  2.32714275e-01  4.70192950e-01  3.58520862e-01
 -1.10777504e-01 -1.48026305e-01  1.13076704e+00  7.08742995e-02  3.39752798e-01
  7.27158595e-01  1.00000000e+00  1.00000000e+00  1.00000000e+00  1.00000000e+00
  1.00000000e+00  1.83470016e-03  1.40373012e-02  6.88426061e-02  2.32184421e-01
  4.67941342e-01  3.62312032e-01 -1.19332409e-01 -1.60854212e-01  1.14345648e+00
  6.89990956e-02  3.16423980e-01  7.44308252e-01  1.00000000e+00  1.00000000e+00
  1.00000000e+00  1.00000000e+00  1.00000000e+00  1.83109981e-03  1.39500985e-02
  6.84450927e-02  2.32714275e-01  4.70192950e-01  3.58520862e-01 -1.10777504e-01
 -1.48026305e-01  1.13076704e+00  7.08742995e-02  3.39752798e-01  7.27158595e-01
  1.00000000e+00  1.00000000e+00  1.00000000e+00  1.00000000e+00  1.00000000e+00
  3.34945995e-02  2.34726947e-01  8.13757318e-01  1.00000000e+00  3.34945995e-02
  2.34726947e-01  8.13757318e-01  1.00000000e+00  1.83470016e-03  1.40373012e-02
  6.88426061e-02  2.32184421e-01  4.67941342e-01  3.62312032e-01 -1.19332409e-01
 -1.60854212e-01  1.14345648e+00  6.89990956e-02  3.16423980e-01  7.44308252e-01
  1.00000000e+00  1.00000000e+00  1.00000000e+00  1.00000000e+00  1.00000000e+00
  1.83109981e-03  1.39500985e-02  6.84450927e-02  2.32714275e-01  4.70192950e-01
  3.58520862e-01 -1.10777504e-01 -1.48026305e-01  1.13076704e+00  7.08742995e-02
  3.39752798e-01  7.27158595e-01  1.00000000e+00  1.00000000e+00  1.00000000e+00
  1.00000000e+00  1.00000000e+00  3.34945995e-02  2.34726947e-01  8.13757318e-01
  1.00000000e+00
Coordinates of each shell                  R   N=         300
 -1.18757353e+00 -2.67085060e-01  2.57994120e+00 -1.18757353e+00 -2.67085060e-01
  2.57994120e+00 -1.18757353e+00 -2.67085060e-01  2.57994120e+00 -1.18757353e+00
 -2.67085060e-01  2.57994120e+00 -1.18757353e+00 -2.67085060e-01  2.57994120e+00
 -1.18757353e+00 -2.67085060e-01  2.57994120e+00 -1.18757353e+00 -2.67085060e-01
  2.57994120e+00 -1.18757353e+00 -2.67085060e-01  2.57994120e+00  1.22878794e+00
  7.92559896e-01  2.86951618e+00  1.22878794e+00  7.92559896e-01  2.86951618e+00
  1.22878794e+00  7.92559896e-01  2.86951618e+00  1.22878794e+00  7.92559896e-01
  2.86951618e+00  1.22878794e+00  7.92559896e-01  2.86951618e+00  1.22878794e+00
  7.92559896e-01  2.86951618e+00  1.22878794e+00  7.92559896e-01  2.86951618e+00
  1.22878794e+00  7.92559896e-01  2.86951618e+00  2.78501504e+00  1.26308625e+00
  7.81241971e-01  2.78501504e+00  1.26308625e+00  7.81241971e-01  2.78501504e+00
  1.26308625e+00  7.81241971e-01  2.78501504e+00  1.26308625e+00  7.81241971e-01
  2.78501504e+00  1.26308625e+00  7.81241971e-01  2.78501504e+00  1.26308625e+00
  7.81241971e-01  2.78501504e+00  1.26308625e+00  7.81241971e-01  2.78501504e+00
  1.26308625e+00  7.81241971e-01  1.82193266e+00  6.32147111e-01 -1.57307714e+00
  1.82193266e+00  6.32147111e-01 -1.57307714e+00  1.82193266e+00  6.32147111e-01
 -1.57307714e+00  1.82193266e+00  6.32147111e-01 -1.57307714e+00  1.82193266e+00
  6.32147111e-01 -1.57307714e+00  1.82193266e+00  6.32147111e-01 -1.57307714e+00
  1.82193266e+00  6.32147111e-01 -1.57307714e+00  1.82193266e+00  6.32147111e-01
 -1.57307714e+00 -5.75920730e-01 -4.20777053e-01 -1.87588438e+00 -5.75920730e-01
 -4.20777053e-01 -1.87588438e+00 -5.75920730e-01 -4.20777053e-01 -1.87588438e+00
 -5.75920730e-01 -4.20777053e-01 -1.87588438e+00 -5.75920730e-01 -4.20777053e-01
 -1.87588438e+00 -5.75920730e-01 -4.20777053e-01 -1.87588438e+00 -5.75920730e-01
 -4.20777053e-01 -1.87588438e+00 -5.75920730e-01 -4.20777053e-01 -1.87588438e+00
 -2.13098598e+00 -8.95951364e-01  1.56767140e-01 -2.13098598e+00 -8.95951364e-01
  1.56767140e-01 -2.13098598e+00 -8.95951364e-01  1.56767140e-01 -2.13098598e+00
 -8.95951364e-01  1.56767140e-01 -2.13098598e+00 -8.95951364e-01  1.56767140e-01
 -2.13098598e+00 -8.95951364e-01  1.56767140e-01 -2.13098598e+00 -8.95951364e-01
  1.56767140e-01 -2.13098598e+00 -8.95951364e-01  1.56767140e-01  1.87139700e+00
  1.24369199e+00  4.76453222e+00  1.87139700e+00  1.24369199e+00  4.76453222e+00
 -3.99766788e+00 -1.71599270e+00 -8.33641242e-02 -3.99766788e+00 -1.71599270e+00
 -8.33641242e-02  4.65467858e+00  2.08068190e+00  9.80358726e-01  4.65467858e+00
  2.08068190e+00  9.80358726e-01 -1.03088711e+00 -8.49925256e-01 -4.39872670e+00
 -1.03088711e+00 -8.49925256e-01 -4.39872670e+00 -1.03088711e+00 -8.49925256e-01
 -4.39872670e+00 -1.03088711e+00 -8.49925256e-01 -4.39872670e+00 -1.03088711e+00
 -8.49925256e-01 -4.39872670e+00 -1.03088711e+00 -8.49925256e-01 -4.39872670e+00
 -1.03088711e+00 -8.49925256e-01 -4.39872670e+00 -1.03088711e+00 -8.49925256e-01
 -4.39872670e+00  1.18734837e+00 -2.71545886e-02 -5.72313257e+00  1.18734837e+00
 -2.71545886e-02 -5.72313257e+00  1.18734837e+00 -2.71545886e-02 -5.72313257e+00
  1.18734837e+00 -2.71545886e-02 -5.72313257e+00  1.18734837e+00 -2.71545886e-02
 -5.72313257e+00  1.18734837e+00 -2.71545886e-02 -5.72313257e+00  1.18734837e+00
 -2.71545886e-02 -5.72313257e+00  1.18734837e+00 -2.71545886e-02 -5.72313257e+00
  2.95758403e+00  9.02920338e-01 -3.87860023e+00  2.95758403e+00  9.02920338e-01
 -3.87860023e+00  2.95758403e+00  9.02920338e-01 -3.87860023e+00  2.95758403e+00
  9.02920338e-01 -3.87860023e+00  2.95758403e+00  9.02920338e-01 -3.87860023e+00
  2.95758403e+00  9.02920338e-01 -3.87860023e+00  2.95758403e+00  9.02920338e-01
 -3.87860023e+00  2.95758403e+00  9.02920338e-01 -3.87860023e+00  6.89437862e-01
  1.50592623e+00 -7.01978629e+00  6.89437862e-01  1.50592623e+00 -7.01978629e+00
  2.02907463e+00 -1.62995447e+00 -6.72426529e+00  2.02907463e+00 -1.62995447e+00
 -6.72426529e+00 -2.79544735e+00 -7.46618201e-01  4.80854378e+00 -2.79544735e+00
 -7.46618201e-01  4.80854378e+00 -2.79544735e+00 -7.46618201e-01  4.80854378e+00
 -2.79544735e+00 -7.46618201e-01  4.80854378e+00 -2.79544735e+00 -7.46618201e-01
  4.80854378e+00 -2.79544735e+00 -7.46618201e-01  4.80854378e+00 -2.79544735e+00
 -7.46618201e-01  4.80854378e+00 -2.79544735e+00 -7.46618201e-01  4.80854378e+00
 -2.21294047e+00 -2.94163945e-01  6.99256768e+00 -2.21294047e+00 -2.94163945e-01
  6.99256768e+00 -2.21294047e+00 -2.94163945e-01  6.99256768e+00 -2.21294047e+00
 -2.94163945e-01  6.99256768e+00 -2.21294047e+00 -2.94163945e-01  6.99256768e+00
 -2.21294047e+00 -2.94163945e-01  6.99256768e+00 -2.21294047e+00 -2.94163945e-01
  6.99256768e+00 -2.21294047e+00 -2.94163945e-01  6.99256768e+00 -4.67086380e+00
 -1.58854618e+00  4.37416297e+00 -4.67086380e+00 -1.58854618e+00  4.37416297e+00
Total Energy                               R     -5.341244657741971e+02
Alpha Orbital Energies                     R   N=         221
 -1.92254937e+01 -1.92209278e+01 -1.91551303e+01 -1.03297399e+01 -1.02825385e+01
 -1.02819812e+01 -1.02765585e+01 -1.02258719e+01 -1.02221476e+01 -1.02183687e+01
 -1.02178326e+01 -1.15379489e+00 -1.06364502e+00 -1.04754940e+00 -8.87737726e-01
 -7.95124457e-01 -7.82517864e-01 -7.09897431e-01 -6.66922188e-01 -6.49821468e-01
 -6.03189699e-01 -5.46750113e-01 -5.43103042e-01 -5.33653079e-01 -5.17012929e-01
 -4.78029936e-01 -4.70158799e-01 -4.44515118e-01 -4.31316840e-01 -4.27274459e-01
 -4.07612574e-01 -4.02427973e-01 -4.00588897e-01 -3.96792753e-01 -3.77135807e-01
 -3.33150201e-01 -2.74948716e-01 -2.65124613e-01 -2.34185236e-01 -7.15855561e-02
 -2.98590721e-02 -1.09533643e-03  1.17785850e-02  1.50560702e-02  2.53550073e-02
  2.53726318e-02  2.91173336e-02  3.58285602e-02  4.33039983e-02  5.88036617e-02
  6.16918728e-02  7.18358299e-02  7.89197846e-02  7.92746616e-02  1.01053378e-01
  1.03627672e-01  1.04028730e-01  1.11630811e-01  1.22444312e-01  1.23983380e-01
  1.38851189e-01  1.40043856e-01  1.42743558e-01  1.48248657e-01  1.55052438e-01
  1.65699719e-01  1.65824196e-01  1.68914317e-01  1.82538823e-01  1.82799468e-01
  1.92053234e-01  1.99315768e-01  2.03856777e-01  2.15224615e-01  2.19884482e-01
  2.23755576e-01  2.36624001e-01  2.46156997e-01  2.51816118e-01  2.53943176e-01
  2.61445998e-01  2.72460617e-01  2.74087003e-01  2.78359564e-01  2.84410999e-01
  2.87916619e-01  2.92834028e-01  3.02400617e-01  3.04163507e-01  3.08090437e-01
  3.18399112e-01  3.26107218e-01  3.28822229e-01  3.35810879e-01  3.59495575e-01
  3.63963297e-01  3.75861610e-01  3.85270495e-01  4.16188300e-01  4.18006334e-01
  4.36697701e-01  4.42100891e-01  5.01209571e-01  5.61711281e-01  6.09404962e-01
  6.46626972e-01  6.53146118e-01  6.67545391e-01  6.78541122e-01  6.84541841e-01
  6.97315853e-01  7.04978350e-01  7.27108499e-01  7.31417219e-01  7.64692285e-01
  7.65621036e-01  7.73011762e-01  7.82749577e-01  7.97900649e-01  8.21660734e-01
  8.59978120e-01  8.75500630e-01  8.82991689e-01  9.00557666e-01  9.06632444e-01
  9.20358028e-01  9.66657347e-01  1.00676183e+00  1.02750866e+00  1.05313265e+00
  1.07353319e+00  1.11326116e+00  1.11962750e+00  1.13270694e+00  1.17479376e+00
  1.18388371e+00  1.19582573e+00  1.21759136e+00  1.21895117e+00  1.22396214e+00
  1.23025645e+00  1.24759646e+00  1.25913231e+00  1.30886161e+00  1.31225073e+00
  1.31425881e+00  1.32620834e+00  1.32892883e+00  1.36131618e+00  1.37060858e+00
  1.37120153e+00  1.40946453e+00  1.43384621e+00  1.43677994e+00  1.46118295e+00
  1.48585551e+00  1.50817855e+00  1.52220828e+00  1.53375819e+00  1.60414769e+00
  1.70009894e+00  1.75072344e+00  1.75840233e+00  1.77649823e+00  1.80382283e+00
  1.81813205e+00  1.83487886e+00  1.85514225e+00  1.88040821e+00  1.88692434e+00
  1.93353509e+00  1.94755207e+00  1.97625158e+00  1.98182743e+00  1.99603608e+00
  2.01884706e+00  2.02974430e+00  2.06679060e+00  2.06803550e+00  2.09581734e+00
  2.11101061e+00  2.15632723e+00  2.22677813e+00  2.22695799e+00  2.24874849e+00
  2.29810150e+00  2.30004416e+00  2.35339064e+00  2.36761069e+00  2.38495774e+00
  2.45317690e+00  2.52107875e+00  2.55207229e+00  2.55389275e+00  2.58499071e+00
  2.61433414e+00  2.66870775e+00  2.67411488e+00  2.72935805e+00  2.74983204e+00
  2.84772453e+00  2.86532574e+00  2.88828094e+00  2.93634871e+00  2.97424470e+00
  3.06748499e+00  3.08189515e+00  3.16315304e+00  3.23473716e+00  3.45658993e+00
  4.15841328e+00  4.20621826e+00  4.25151551e+00  4.28176257e+00  4.33315898e+00
  4.37722576e+00  4.44765218e+00  4.47128529e+00  4.51719173e+00  4.59806131e+00
  4.99054649e+00
Alpha MO coefficients                      R   N=       48841
  3.80954830e-06  2.01889749e-05 -6.99153943e-06 -1.85775510e-06  1.20382940e-05
 -4.29468269e-04 -3.50167943e-04 -1.93344471e-04 -4.68610488e-04 -6.73182645e-06
  3.35200381e-06  9.99609540e-06 -4.27688037e-06  1.32331947e-05  6.25409775e-06
  2.51662525e-03 -1.75948125e-04 -4.19070271e-04 -3.69862620e-03 -5.10159638e-06
 -2.55709003e-05  1.19541560e-05  6.94977778e-06  1.97514486e-05  9.32264374e-05
 -6.45709794e-04 -2.82233294e-04 -6.78085412e-05 -4.27818758e-06 -8.81364492e-06
 -3.75404738e-06  3.89000687e-06  8.24826828e-06  4.25673620e-06 -2.11782282e-03
 -8.01889106e-04 -2.10985493e-04  1.41878315e-03  1.29360826e-05  3.20511039e-05
 -7.46308588e-06 -2.00761461e-06  1.26378341e-05 -1.04899650e-03  1.15106108e-04
  1.53291546e-04  1.11850851e-03  2.71753145e-05  1.49164502e-05  2.21877132e-05
  5.41822997e-06 -1.51800231e-05 -5.52862313e-06  1.16072572e-02 -1.26527621e-03
 -7.01957258e-04 -1.73853329e-03  5.82771497e-05 -1.21516590e-05 -1.93009039e-04
 -4.75732090e-05  3.75267262e-04 -2.85110060e-04  1.45634268e-03  6.99903193e-04
  8.29106130e-04  2.69841915e-05  1.29429659e-04 -1.84281793e-04 -4.31595696e-05
  1.51400195e-04  2.94988411e-05 -3.71031612e-02  3.14317637e-03  1.53060857e-03
  2.02736184e-03 -1.42683815e-05 -2.03453544e-04  4.45415105e-05  1.92923129e-05
  2.85402561e-06  1.64200152e-03  7.18702902e-04  2.89720511e-04 -1.86174523e-04
  1.08531717e-04  9.09414644e-06  6.76058858e-05  5.00686737e-05 -7.68452873e-05
 -2.47657476e-05 -4.50841219e-03  1.71043169e-02  6.28491084e-03 -1.10031799e-02
  5.74385281e-07  2.27757871e-05 -1.30875391e-05 -2.94651266e-06  2.83905344e-05
 -2.05599147e-04 -1.78878312e-04 -1.03748208e-04 -2.93532930e-04 -1.04350963e-05
  1.40241549e-06 -4.64717093e-05 -4.16294649e-06  2.40039739e-05  4.98317933e-06
  2.65500397e-02  3.09936833e-03  3.85664604e-04 -1.00729419e-02  2.22357071e-05
  1.50660718e-04 -6.56799743e-06 -1.25850322e-04  5.72519649e-05 -3.48516303e-04
  2.20572800e-04 -6.01786169e-05 -4.31158199e-06 -1.96130504e-06 -1.08674160e-06
  4.94451038e-05 -8.49727375e-05 -3.28679732e-05  3.45290352e-05  2.44617370e-05
 -2.17479711e-05 -4.05324031e-05  3.14831036e-05  2.63487393e-05  1.05854523e-05
 -2.48628988e-03 -1.12341019e-03 -4.90183395e-04 -1.07679795e-04  1.94968164e-05
 -1.38011057e-05 -1.96547325e-04 -1.09880068e-04 -2.75195659e-04  7.44109068e-04
 -2.81565560e-04 -1.19860784e-04  4.48799739e-06 -1.63330945e-04 -6.26899559e-06
 -2.52454037e-04 -1.36151966e-04 -2.91675891e-04 -1.58274010e-04 -4.02743747e-03
  2.46191877e-04  5.25471761e-06 -1.06044006e-03 -9.92560708e-01 -2.53775468e-02
  1.06590182e-03  4.33641454e-04 -2.42328971e-04 -1.49296483e-02 -1.15986310e-03
 -4.96461188e-04 -7.39258936e-07  8.79809566e-03  8.61119701e-03  8.84148807e-03
  1.15066234e-04  3.85063403e-06  3.13951631e-05  8.19545849e-03  1.74554582e-04
  8.98618486e-05  1.60473269e-04 -4.47936425e-05 -2.53745033e-04 -4.47397291e-05
 -2.54017843e-04 -4.35008757e-06 -2.33745214e-05 -3.04011193e-06 -1.17087406e-06
  1.32835653e-06  3.43385820e-04  2.75262847e-04  1.24332605e-04  7.19747910e-05
  2.96053998e-06 -8.34431023e-06 -6.39875407e-08  6.20082853e-06 -5.04236350e-06
 -1.02781387e-06  5.05821890e-03  4.50652970e-04  9.71845133e-05 -1.02297228e-03
  3.75673742e-06  1.69921097e-05  1.98352697e-06  6.79948528e-07 -1.79173353e-06
 -1.55651946e-04 -1.40465270e-05  4.29592845e-07  6.89806197e-05  1.18601167e-05
  8.07933197e-06  9.86230695e-07  2.60757466e-06  2.65298715e-06  4.78069117e-07
 -1.65513988e-04  1.90442623e-05  1.51878250e-05  7.56970657e-05  4.19555659e-06
  1.47367748e-04 -8.66520853e-08 -2.78358697e-06  1.73907694e-05  5.08799503e-06
 -2.51107185e-05  1.13081390e-04 -4.88001110e-04 -1.75686185e-04  3.53068579e-04
  2.53518559e-06  1.70004255e-06  2.90661050e-06  1.34487313e-06  6.14015661e-06
  2.83731427e-06  1.07308832e-03 -7.59808816e-03 -3.34390070e-03 -1.03931422e-03
 -2.87044269e-06 -1.14412276e-05 -9.95432268e-06 -4.61285481e-06 -3.78405653e-06
  3.31417590e-04 -1.53584449e-04 -7.44378406e-05 -9.48606988e-05 -4.94213793e-06
 -1.83728831e-06 -5.61538293e-06 -4.10512510e-07  1.09954647e-05  4.31373945e-06
  3.09400192e-03 -6.38071546e-03 -2.57297263e-03  1.65493584e-03  5.28157722e-06
  8.53844269e-06 -2.60090924e-06 -4.28773524e-06 -3.41179719e-05 -4.08016702e-04
 -1.27409561e-05  1.13111072e-05  1.80419424e-04  6.01206749e-06  8.91810261e-06
  4.93961831e-05 -8.37157639e-08  1.07479414e-05  9.02894640e-06 -1.74230828e-02
 -5.81608849e-04  7.56770807e-04  1.07861275e-02  1.50724986e-05  2.03752960e-04
  4.25692547e-05  1.88805722e-05  7.34092218e-06 -1.51291807e-03  5.52862414e-04
  2.95372813e-04  6.33468009e-04 -6.56147933e-05 -9.41436495e-06 -9.80853052e-05
 -4.40326580e-05 -7.07617957e-05 -4.18943406e-05 -4.04790574e-03  1.40452724e-02
  7.16356444e-03  1.24725635e-02 -5.58202067e-05  9.65528539e-06 -7.94371191e-05
 -7.11558068e-05 -4.00121489e-04 -1.66171227e-05  1.65664137e-03  6.37459176e-04
 -7.53221214e-04 -7.79636907e-05 -1.14350591e-04  2.55531076e-04  3.28600922e-05
  6.57778323e-05  6.97899411e-05  4.99369466e-02  2.42764804e-03  1.40624378e-03
  3.93749701e-03 -1.75330546e-05 -6.01148339e-05 -4.09960748e-06 -2.39343595e-06
 -6.81449106e-06  1.64569767e-03  6.20391822e-04  1.66913452e-04 -1.05559982e-03
 -2.45241738e-05 -2.12365815e-05 -2.19503019e-05 -4.19486736e-06 -1.64415456e-05
 -7.33912878e-06 -2.95037761e-02 -3.43982984e-03 -1.44838169e-03  2.40092412e-04
  4.25250573e-06  6.14845909e-07 -5.89718101e-05  4.21721610e-04  8.23876670e-06
  5.99385196e-05  9.92562549e-01  2.53853220e-02  9.68201663e-04  4.58664330e-04
  4.90512481e-04  1.48460534e-02 -1.14406582e-03 -5.16658678e-04 -3.06389815e-04
 -8.80352202e-03 -8.60523202e-03 -8.83500742e-03 -1.17833346e-04  2.22835361e-05
 -2.01119631e-05 -8.38602174e-03  1.98407525e-04  5.87395426e-05 -2.76355077e-04
 -2.00254177e-05  2.24576110e-05 -2.74402059e-04 -9.66396718e-05  2.18650562e-04
 -7.07847065e-04 -2.61047602e-04 -1.16568808e-04 -5.42404367e-05  3.05273984e-04
 -1.27467705e-05  1.18540039e-04  1.54553056e-04 -2.81281117e-04 -1.00539718e-04
  5.40388946e-03 -3.30862304e-04 -7.25034733e-06  1.42433438e-03  2.32959197e-04
  6.80166564e-05 -5.69581906e-06 -2.39731873e-06  1.75538834e-07  1.61162636e-05
 -7.52423033e-05 -3.40030731e-05 -1.72404772e-05 -3.90301033e-05  1.72303143e-05
  4.31231712e-05 -3.37213304e-05  7.71826043e-07  1.80259363e-06  2.71990621e-03
 -1.19956858e-03 -5.18545277e-04 -6.47655134e-05  4.66585920e-05  2.33109409e-04
  4.66029699e-05  2.33505461e-04 -1.96222198e-06  1.55455694e-06 -5.91324216e-06
 -1.72644240e-06  8.65118824e-06 -5.57064271e-04 -2.26298409e-04 -1.08871203e-04
 -1.30799970e-04 -3.24198125e-06 -9.77320131e-07 -2.84168783e-05 -2.13557182e-06
 -4.60147159e-06 -5.04950571e-06 -6.51619877e-03 -4.11522536e-04 -6.58205941e-05
  1.17900790e-03 -7.69940980e-06 -4.74208460e-05 -1.41995860e-06 -4.54598686e-07
  1.65183299e-06  3.44701685e-04 -6.22322103e-06 -1.55619926e-05 -1.38538013e-04
 -3.24763958e-05 -2.74033964e-05 -5.45669255e-06 -2.14943393e-06  5.90991008e-06
  4.84493989e-06  1.11198092e-04 -6.61825750e-05 -2.75288995e-05  8.81855839e-06
 -3.40411910e-06 -1.05780338e-04  8.70166163e-06 -2.18382097e-05 -6.77844570e-06
 -1.61724236e-06  1.37241701e-05  1.12096412e-04  5.01307066e-04  1.90072639e-04
 -2.59342049e-04 -1.23339427e-05  1.56029219e-05  1.00520505e-04 -1.27475025e-05