Generated by Psi4
     FORCE                           RHF                       TESTBAS
Number of atoms                            I               37
Charge                                     I                1
Multiplicity                               I                1
Number of electrons                        I              150
Number of alpha electrons                  I               75
Number of beta electrons                   I               75
Number of basis functions                  I              401
Number of independent functions            I              401
Atomic numbers                             I   N=          37
           6           6           6           6           6           6
           7           6           6           1           1           6
           6           1           1           7           1           1
           8           1           1           1           6           1
           1           1           6           1           1           1
           1          15           8           8           8           1
           1
Nuclear charges                            R   N=          37
  6.00000000e+00  6.00000000e+00  6.00000000e+00  6.00000000e+00  6.00000000e+00
  6.00000000e+00  7.00000000e+00  6.00000000e+00  6.00000000e+00  1.00000000e+00
  1.00000000e+00  6.00000000e+00  6.00000000e+00  1.00000000e+00  1.00000000e+00
  7.00000000e+00  1.00000000e+00  1.00000000e+00  8.00000000e+00  1.00000000e+00
  1.00000000e+00  1.00000000e+00  6.00000000e+00  1.00000000e+00  1.00000000e+00
  1.00000000e+00  6.00000000e+00  1.00000000e+00  1.00000000e+00  1.00000000e+00
  1.00000000e+00  1.50000000e+01  8.00000000e+00  8.00000000e+00  8.00000000e+00
  1.00000000e+00  1.00000000e+00
Current cartesian coordinates              R   N=         111
 -1.26236547e+00 -1.89965136e+00 -3.30127120e+00  2.78507665e+00  3.69906222e-01
 -1.42547847e+00  9.77936434e-01 -3.38287703e-01 -3.23496075e+00  4.82704705e+00
  1.88918360e+00 -2.01646976e+00  5.14869459e+00  2.75460545e+00 -4.51795363e+00
 -2.09259032e+00 -1.86015953e+00 -5.76815045e+00 -5.27925281e-01 -3.80026089e-01
 -7.21950087e+00  1.38770084e+00  5.77526831e-01 -5.73717756e+00  3.43613793e+00
  2.11432926e+00 -6.40089160e+00 -7.10896244e-01 -1.01256186e-01 -9.09958657e+00
 -3.69434162e+00 -2.81189617e+00 -6.61195581e+00 -2.52570112e+00 -3.27895831e+00
 -1.15027293e+00 -4.24584012e+00 -1.45532884e+00  3.06879707e-01 -1.08307310e+00
 -4.06519433e+00  1.03206037e-01 -3.62616735e+00 -4.87119831e+00 -1.89988204e+00
 -5.56426737e+00 -2.59890244e+00  2.61204658e+00 -5.76908097e+00 -7.70295011e-01
 -9.11207104e-01 -3.19183760e+00  1.66938186e-01  1.02286443e+00  2.46704606e+00
 -5.31970732e-01  1.10366923e+00  6.18387509e+00  2.39268639e+00 -5.61133946e-01
  6.76623871e+00  3.93305270e+00 -4.96629909e+00  3.69186110e+00  2.77241116e+00
 -8.32815609e+00 -3.82084527e+00 -3.93668068e+00  4.42705357e+00 -2.32277757e+00
 -2.64680653e+00  5.01780989e+00 -3.01660066e+00 -5.58870170e+00  3.49775976e+00
 -4.93096687e+00 -4.53444492e+00  6.05954725e+00 -7.06303784e+00 -5.81029818e-01
  3.95180992e+00 -8.36512445e+00  2.84363573e-01  2.60700398e+00 -5.73533352e+00
  8.28904081e-01  4.65966764e+00 -8.11038103e+00 -1.44348522e+00  5.50491329e+00
  3.90627537e+00 -1.54885144e+00  1.65105162e+00  1.32172920e+00  1.52581265e+00
  4.17143000e+00  3.68303496e+00  3.42536456e+00  4.22125669e+00  1.60150554e+00
 -6.14588318e-01  5.94797661e+00 -1.02714264e+00  2.67237898e+00  3.13972844e+00
  3.28124551e+00  5.05136586e+00  3.45419460e+00 -6.82334932e+00 -3.92079478e+00
  1.96289317e+00
Integer atomic weights                     I   N=          37
          12          12          12          12          12          12
          14          12          12           1           1          12
          12           1           1          14           1           1
          15           1           1           1          12           1
           1           1          12           1           1           1
           1          30          15          15          15           1
           1
Real atomic weights                        R   N=          37
  1.20000000e+01  1.20000000e+01  1.20000000e+01  1.20000000e+01  1.20000000e+01
  1.20000000e+01  1.40030740e+01  1.20000000e+01  1.20000000e+01  1.00782503e+00
  1.00782503e+00  1.20000000e+01  1.20000000e+01  1.00782503e+00  1.00782503e+00
  1.40030740e+01  1.00782503e+00  1.00782503e+00  1.59949146e+01  1.00782503e+00
  1.00782503e+00  1.00782503e+00  1.20000000e+01  1.00782503e+00  1.00782503e+00
  1.00782503e+00  1.20000000e+01  1.00782503e+00  1.00782503e+00  1.00782503e+00
  1.00782503e+00  3.09737620e+01  1.59949146e+01  1.59949146e+01  1.59949146e+01
  1.00782503e+00  1.00782503e+00
Number of primitive shells                 I              407
Number of contracted shells                I              190
Pure/Cartesian d shells                    I                1
Pure/Cartesian f shells                    I                1
Highest angular momentum                   I                2
Largest degree of contraction              I                6
Shell types                                I   N=         190
           0           0           1           0           1           2
           0           1           0           0           1           0
           1           2           0           1           0           0
           1           0           1           2           0           1
           0           0           1           0           1           2
           0           1           0           0           1           0
           1           2           0           1           0           0
           1           0           1           2           0           1
           0           0           1           0           1           2
           0           1           0           0           1           0
           1           2           0           1           0           0
           1           0           1           2           0           1
           0           0           0           0           0           0
           1           0           1           2           0           1
           0           0           1           0           1           2
           0           1           0           0           0           0
           0           0           1           0           1           2
           0           1           0           0           0           0
           0           0           1           0           1           2
           0           1           0           0           0           0
           0           0           0           0           1           0
           1           2           0           1           0           0
           0           0           0           0           0           0
           1           0           1           2           0           1
           0           0           0           0           0           0
           0           0           0           0           1           0
           1           0           1           2           0           1
           0           0           1           0           1           2
           0           1           0           0           1           0
           1           2           0           1           0           0
           1           0           1           2           0           1
           0           0           0           0
Number of primitives per shell             I   N=         190
           6           3           3           1           1           1
           1           1           6           3           3           1
           1           1           1           1           6           3
           3           1           1           1           1           1
           6           3           3           1           1           1
           1           1           6           3           3           1
           1           1           1           1           6           3
           3           1           1           1           1           1
           6           3           3           1           1           1
           1           1           6           3           3           1
           1           1           1           1           6           3
           3           1           1           1           1           1
           3           1           3           1           6           3
           3           1           1           1           1           1
           6           3           3           1           1           1
           1           1           3           1           3           1
           6           3           3           1           1           1
           1           1           3           1           3           1
           6           3           3           1           1           1
           1           1           3           1           3           1
           3           1           6           3           3           1
           1           1           1           1           3           1
           3           1           3           1           6           3
           3           1           1           1           1           1
           3           1           3           1           3           1
           3           1           6           6           6           3
           3           1           1           1           1           1
           6           3           3           1           1           1
           1           1           6           3           3           1
           1           1           1           1           6           3
           3           1           1           1           1           1
           3           1           3           1
Shell to atom map                          I   N=         190
           1           1           1           1           1           1
           1           1           2           2           2           2
           2           2           2           2           3           3
           3           3           3           3           3           3
           4           4           4           4           4           4
           4           4           5           5           5           5
           5           5           5           5           6           6
           6           6           6           6           6           6
           7           7           7           7           7           7
           7           7           8           8           8           8
           8           8           8           8           9           9
           9           9           9           9           9           9
          10          10          11          11          12          12
          12          12          12          12          12          12
          13          13          13          13          13          13
          13          13          14          14          15          15
          16          16          16          16          16          16
          16          16          17          17          18          18
          19          19          19          19          19          19
          19          19          20          20          21          21
          22          22          23          23          23          23
          23          23          23          23          24          24
          25          25          26          26          27          27
          27          27          27          27          27          27
          28          28          29          29          30          30
          31          31          32          32          32          32
          32          32          32          32          32          32
          33          33          33          33          33          33
          33          33          34          34          34          34
          34          34          34          34          35          35
          35          35          35          35          35          35
          36          36          37          37
Primitive exponents                        R   N=         407
  3.04752490e+03  4.57369510e+02  1.03948690e+02  2.92101550e+01  9.28666300e+00
  3.16392700e+00  7.86827240e+00  1.88128850e+00  5.44249300e-01  7.86827240e+00
  1.88128850e+00  5.44249300e-01  1.68714400e-01  1.68714400e-01  8.00000000e-01
  4.38000000e-02  4.38000000e-02  3.04752490e+03  4.57369510e+02  1.03948690e+02
  2.92101550e+01  9.28666300e+00  3.16392700e+00  7.86827240e+00  1.88128850e+00
  5.44249300e-01  7.86827240e+00  1.88128850e+00  5.44249300e-01  1.68714400e-01
  1.68714400e-01  8.00000000e-01  4.38000000e-02  4.38000000e-02  3.04752490e+03
  4.57369510e+02  1.03948690e+02  2.92101550e+01  9.28666300e+00  3.16392700e+00
  7.86827240e+00  1.88128850e+00  5.44249300e-01  7.86827240e+00  1.88128850e+00
  5.44249300e-01  1.68714400e-01  1.68714400e-01  8.00000000e-01  4.38000000e-02
  4.38000000e-02  3.04752490e+03  4.57369510e+02  1.03948690e+02  2.92101550e+01
  9.28666300e+00  3.16392700e+00  7.86827240e+00  1.88128850e+00  5.44249300e-01
  7.86827240e+00  1.88128850e+00  5.44249300e-01  1.68714400e-01  1.68714400e-01
  8.00000000e-01  4.38000000e-02  4.38000000e-02  3.04752490e+03  4.57369510e+02
  1.03948690e+02  2.92101550e+01  9.28666300e+00  3.16392700e+00  7.86827240e+00
  1.88128850e+00  5.44249300e-01  7.86827240e+00  1.88128850e+00  5.44249300e-01
  1.68714400e-01  1.68714400e-01  8.00000000e-01  4.38000000e-02  4.38000000e-02
  3.04752490e+03  4.57369510e+02  1.03948690e+02  2.92101550e+01  9.28666300e+00
  3.16392700e+00  7.86827240e+00  1.88128850e+00  5.44249300e-01  7.86827240e+00
  1.88128850e+00  5.44249300e-01  1.68714400e-01  1.68714400e-01  8.00000000e-01
  4.38000000e-02  4.38000000e-02  4.17351100e+03  6.27457900e+02  1.42902100e+02
  4.02343300e+01  1.28202100e+01  4.39043700e+00  1.16263580e+01  2.71628000e+00
  7.72218000e-01  1.16263580e+01  2.71628000e+00  7.72218000e-01  2.12031300e-01
  2.12031300e-01  8.00000000e-01  6.39000000e-02  6.39000000e-02  3.04752490e+03
  4.57369510e+02  1.03948690e+02  2.92101550e+01  9.28666300e+00  3.16392700e+00
  7.86827240e+00  1.88128850e+00  5.44249300e-01  7.86827240e+00  1.88128850e+00
  5.44249300e-01  1.68714400e-01  1.68714400e-01  8.00000000e-01  4.38000000e-02
  4.38000000e-02  3.04752490e+03  4.57369510e+02  1.03948690e+02  2.92101550e+01
  9.28666300e+00  3.16392700e+00  7.86827240e+00  1.88128850e+00  5.44249300e-01
  7.86827240e+00  1.88128850e+00  5.44249300e-01  1.68714400e-01  1.68714400e-01
  8.00000000e-01  4.38000000e-02  4.38000000e-02  1.87311370e+01  2.82539370e+00
  6.40121700e-01  1.61277800e-01  1.87311370e+01  2.82539370e+00  6.40121700e-01
  1.61277800e-01  3.04752490e+03  4.57369510e+02  1.03948690e+02  2.92101550e+01
  9.28666300e+00  3.16392700e+00  7.86827240e+00  1.88128850e+00  5.44249300e-01
  7.86827240e+00  1.88128850e+00  5.44249300e-01  1.68714400e-01  1.68714400e-01
  8.00000000e-01  4.38000000e-02  4.38000000e-02  3.04752490e+03  4.57369510e+02
  1.03948690e+02  2.92101550e+01  9.28666300e+00  3.16392700e+00  7.86827240e+00
  1.88128850e+00  5.44249300e-01  7.86827240e+00  1.88128850e+00  5.44249300e-01
  1.68714400e-01  1.68714400e-01  8.00000000e-01  4.38000000e-02  4.38000000e-02
  1.87311370e+01  2.82539370e+00  6.40121700e-01  1.61277800e-01  1.87311370e+01
  2.82539370e+00  6.40121700e-01  1.61277800e-01  4.17351100e+03  6.27457900e+02
  1.42902100e+02  4.02343300e+01  1.28202100e+01  4.39043700e+00  1.16263580e+01
  2.71628000e+00  7.72218000e-01  1.16263580e+01  2.71628000e+00  7.72218000e-01
  2.12031300e-01  2.12031300e-01  8.00000000e-01  6.39000000e-02  6.39000000e-02
  1.87311370e+01  2.82539370e+00  6.40121700e-01  1.61277800e-01  1.87311370e+01
  2.82539370e+00  6.40121700e-01  1.61277800e-01  5.48467170e+03  8.25234950e+02
  1.88046960e+02  5.29645000e+01  1.68975700e+01  5.79963530e+00  1.55396160e+01
  3.59993360e+00  1.01376180e+00  1.55396160e+01  3.59993360e+00  1.01376180e+00
  2.70005800e-01  2.70005800e-01  8.00000000e-01  8.45000000e-02  8.45000000e-02
  1.87311370e+01  2.82539370e+00  6.40121700e-01  1.61277800e-01  1.87311370e+01
  2.82539370e+00  6.40121700e-01  1.61277800e-01  1.87311370e+01  2.82539370e+00
  6.40121700e-01  1.61277800e-01  3.04752490e+03  4.57369510e+02  1.03948690e+02
  2.92101550e+01  9.28666300e+00  3.16392700e+00  7.86827240e+00  1.88128850e+00
  5.44249300e-01  7.86827240e+00  1.88128850e+00  5.44249300e-01  1.68714400e-01
  1.68714400e-01  8.00000000e-01  4.38000000e-02  4.38000000e-02  1.87311370e+01
  2.82539370e+00  6.40121700e-01  1.61277800e-01  1.87311370e+01  2.82539370e+00
  6.40121700e-01  1.61277800e-01  1.87311370e+01  2.82539370e+00  6.40121700e-01
  1.61277800e-01  3.04752490e+03  4.57369510e+02  1.03948690e+02  2.92101550e+01
  9.28666300e+00  3.16392700e+00  7.86827240e+00  1.88128850e+00  5.44249300e-01
  7.86827240e+00  1.88128850e+00  5.44249300e-01  1.68714400e-01  1.68714400e-01
  8.00000000e-01  4.38000000e-02  4.38000000e-02  1.87311370e+01  2.82539370e+00
  6.40121700e-01  1.61277800e-01  1.87311370e+01  2.82539370e+00  6.40121700e-01
  1.61277800e-01  1.87311370e+01  2.82539370e+00  6.40121700e-01  1.61277800e-01
  1.87311370e+01  2.82539370e+00  6.40121700e-01  1.61277800e-01  1.94133000e+04
  2.90942000e+03  6.61364000e+02  1.85759000e+02  5.91943000e+01  2.00310000e+01
  3.39478000e+02  8.10101000e+01  2.58780000e+01  9.45221000e+00  3.66566000e+00
  1.46746000e+00  3.39478000e+02  8.10101000e+01  2.58780000e+01  9.45221000e+00
  3.66566000e+00  1.46746000e+00  2.15623000e+00  7.48997000e-01  2.83145000e-01
  2.15623000e+00  7.48997000e-01  2.83145000e-01  9.98317000e-02  9.98317000e-02
  5.50000000e-01  3.48000000e-02  3.48000000e-02  5.48467170e+03  8.25234950e+02
  1.88046960e+02  5.29645000e+01  1.68975700e+01  5.79963530e+00  1.55396160e+01
  3.59993360e+00  1.01376180e+00  1.55396160e+01  3.59993360e+00  1.01376180e+00
  2.70005800e-01  2.70005800e-01  8.00000000e-01  8.45000000e-02  8.45000000e-02
  5.48467170e+03  8.25234950e+02  1.88046960e+02  5.29645000e+01  1.68975700e+01
  5.79963530e+00  1.55396160e+01  3.59993360e+00  1.01376180e+00  1.55396160e+01
  3.59993360e+00  1.01376180e+00  2.70005800e-01  2.70005800e-01  8.00000000e-01
  8.45000000e-02  8.45000000e-02  5.48467170e+03  8.25234950e+02  1.88046960e+02
  5.29645000e+01  1.68975700e+01  5.79963530e+00  1.55396160e+01  3.59993360e+00
  1.01376180e+00  1.55396160e+01  3.59993360e+00  1.01376180e+00  2.70005800e-01
  2.70005800e-01  8.00000000e-01  8.45000000e-02  8.45000000e-02  1.87311370e+01
  2.82539370e+00  6.40121700e-01  1.61277800e-01  1.87311370e+01  2.82539370e+00
  6.40121700e-01  1.61277800e-01
Contraction coefficients                   R   N=         407
  1.83470016e-03  1.40373012e-02  6.88426061e-02  2.32184421e-01  4.67941342e-01
  3.62312032e-01 -1.19332409e-01 -1.60854212e-01  1.14345648e+00  6.89990956e-02
  3.16423980e-01  7.44308252e-01  1.00000000e+00  1.00000000e+00  1.00000000e+00
  1.00000000e+00  1.00000000e+00  1.83470016e-03  1.40373012e-02  6.88426061e-02
  2.32184421e-01  4.67941342e-01  3.62312032e-01 -1.19332409e-01 -1.60854212e-01
  1.14345648e+00  6.89990956e-02  3.16423980e-01  7.44308252e-01  1.00000000e+00
  1.00000000e+00  1.00000000e+00  1.00000000e+00  1.00000000e+00  1.83470016e-03
  1.40373012e-02  6.88426061e-02  2.32184421e-01  4.67941342e-01  3.62312032e-01
 -1.19332409e-01 -1.60854212e-01  1.14345648e+00  6.89990956e-02  3.16423980e-01
  7.44308252e-01  1.00000000e+00  1.00000000e+00  1.00000000e+00  1.00000000e+00
  1.00000000e+00  1.83470016e-03  1.40373012e-02  6.88426061e-02  2.32184421e-01
  4.67941342e-01  3.62312032e-01 -1.19332409e-01 -1.60854212e-01  1.14345648e+00
  6.89990956e-02  3.16423980e-01  7.44308252e-01  1.00000000e+00  1.00000000e+00
  1.00000000e+00  1.00000000e+00  1.00000000e+00  1.83470016e-03  1.40373012e-02
  6.88426061e-02  2.32184421e-01  4.67941342e-01  3.62312032e-01 -1.19332409e-01
 -1.60854212e-01  1.14345648e+00  6.89990956e-02  3.16423980e-01  7.44308252e-01
  1.00000000e+00  1.00000000e+00  1.00000000e+00  1.00000000e+00  1.00000000e+00
  1.83470016e-03  1.40373012e-02  6.88426061e-02  2.32184421e-01  4.67941342e-01
  3.62312032e-01 -1.19332409e-01 -1.60854212e-01  1.14345648e+00  6.89990956e-02
  3.16423980e-01  7.44308252e-01  1.00000000e+00  1.00000000e+00  1.00000000e+00
  1.00000000e+00  1.00000000e+00  1.83479944e-03  1.39949958e-02  6.85869792e-02
  2.32240930e-01  4.69069858e-01  3.60454891e-01 -1.14961023e-01 -1.69118034e-01
  1.14585223e+00  6.75800232e-02  3.23907111e-01  7.40895255e-01  1.00000000e+00
  1.00000000e+00  1.00000000e+00  1.00000000e+00  1.00000000e+00  1.83470016e-03
  1.40373012e-02  6.88426061e-02  2.32184421e-01  4.67941342e-01  3.62312032e-01
 -1.19332409e-01 -1.60854212e-01  1.14345648e+00  6.89990956e-02  3.16423980e-01
  7.44308252e-01  1.00000000e+00  1.00000000e+00  1.00000000e+00  1.00000000e+00
  1.00000000e+00  1.83470016e-03  1.40373012e-02  6.88426061e-02  2.32184421e-01
  4.67941342e-01  3.62312032e-01 -1.19332409e-01 -1.60854212e-01  1.14345648e+00
  6.89990956e-02  3.16423980e-01  7.44308252e-01  1.00000000e+00  1.00000000e+00
  1.00000000e+00  1.00000000e+00  1.00000000e+00  3.34945995e-02  2.34726947e-01
  8.13757318e-01  1.00000000e+00  3.34945995e-02  2.34726947e-01  8.13757318e-01
  1.00000000e+00  1.83470016e-03  1.40373012e-02  6.88426061e-02  2.32184421e-01
  4.67941342e-01  3.62312032e-01 -1.19332409e-01 -1.60854212e-01  1.14345648e+00
  6.89990956e-02  3.16423980e-01  7.44308252e-01  1.00000000e+00  1.00000000e+00
  1.00000000e+00  1.00000000e+00  1.00000000e+00  1.83470016e-03  1.40373012e-02
  6.88426061e-02  2.32184421e-01  4.67941342e-01  3.62312032e-01 -1.19332409e-01
 -1.60854212e-01  1.14345648e+00  6.89990956e-02  3.16423980e-01  7.44308252e-01
  1.00000000e+00  1.00000000e+00  1.00000000e+00  1.00000000e+00  1.00000000e+00
  3.34945995e-02  2.34726947e-01  8.13757318e-01  1.00000000e+00  3.34945995e-02
  2.34726947e-01  8.13757318e-01  1.00000000e+00  1.83479944e-03  1.39949958e-02
  6.85869792e-02  2.32240930e-01  4.69069858e-01  3.60454891e-01 -1.14961023e-01
 -1.69118034e-01  1.14585223e+00  6.75800232e-02  3.23907111e-01  7.40895255e-01
  1.00000000e+00  1.00000000e+00  1.00000000e+00  1.00000000e+00  1.00000000e+00
  3.34945995e-02  2.34726947e-01  8.13757318e-01  1.00000000e+00  3.34945995e-02
  2.34726947e-01  8.13757318e-01  1.00000000e+00  1.83109981e-03  1.39500985e-02
  6.84450927e-02  2.32714275e-01  4.70192950e-01  3.58520862e-01 -1.10777504e-01
 -1.48026305e-01  1.13076704e+00  7.08742995e-02  3.39752798e-01  7.27158595e-01
  1.00000000e+00  1.00000000e+00  1.00000000e+00  1.00000000e+00  1.00000000e+00
  3.34945995e-02  2.34726947e-01  8.13757318e-01  1.00000000e+00  3.34945995e-02
  2.34726947e-01  8.13757318e-01  1.00000000e+00  3.34945995e-02  2.34726947e-01
  8.13757318e-01  1.00000000e+00  1.83470016e-03  1.40373012e-02  6.88426061e-02
  2.32184421e-01  4.67941342e-01  3.62312032e-01 -1.19332409e-01 -1.60854212e-01
  1.14345648e+00  6.89990956e-02  3.16423980e-01  7.44308252e-01  1.00000000e+00
  1.00000000e+00  1.00000000e+00  1.00000000e+00  1.00000000e+00  3.34945995e-02
  2.34726947e-01  8.13757318e-01  1.00000000e+00  3.34945995e-02  2.34726947e-01
  8.13757318e-01  1.00000000e+00  3.34945995e-02  2.34726947e-01  8.13757318e-01
  1.00000000e+00  1.83470016e-03  1.40373012e-02  6.88426061e-02  2.32184421e-01
  4.67941342e-01  3.62312032e-01 -1.19332409e-01 -1.60854212e-01  1.14345648e+00
  6.89990956e-02  3.16423980e-01  7.44308252e-01  1.00000000e+00  1.00000000e+00
  1.00000000e+00  1.00000000e+00  1.00000000e+00  3.34945995e-02  2.34726947e-01
  8.13757318e-01  1.00000000e+00  3.34945995e-02  2.34726947e-01  8.13757318e-01
  1.00000000e+00  3.34945995e-02  2.34726947e-01  8.13757318e-01  1.00000000e+00
  3.34945995e-02  2.34726947e-01  8.13757318e-01  1.00000000e+00  1.85159892e-03
  1.42061917e-02  6.99994593e-02  2.40078860e-01  4.84761718e-01  3.35199805e-01
 -2.78217010e-03 -3.60499014e-02 -1.16631004e-01  9.68328036e-02  6.14418023e-01
  4.03798015e-01  4.56461619e-03  3.36935719e-02  1.39754883e-01  3.39361717e-01
  4.50920624e-01  2.38585801e-01 -2.52924114e-01  3.28518447e-02  1.08125476e+00
 -1.77653127e-02  2.74058196e-01  7.85421563e-01  1.00000000e+00  1.00000000e+00
  1.00000000e+00  1.00000000e+00  1.00000000e+00  1.83109981e-03  1.39500985e-02
  6.84450927e-02  2.32714275e-01  4.70192950e-01  3.58520862e-01 -1.10777504e-01
 -1.48026305e-01  1.13076704e+00  7.08742995e-02  3.39752798e-01  7.27158595e-01
  1.00000000e+00  1.00000000e+00  1.00000000e+00  1.00000000e+00  1.00000000e+00
  1.83109981e-03  1.39500985e-02  6.84450927e-02  2.32714275e-01  4.70192950e-01
  3.58520862e-01 -1.10777504e-01 -1.48026305e-01  1.13076704e+00  7.08742995e-02
  3.39752798e-01  7.27158595e-01  1.00000000e+00  1.00000000e+00  1.00000000e+00
  1.00000000e+00  1.00000000e+00  1.83109981e-03  1.39500985e-02  6.84450927e-02
  2.32714275e-01  4.70192950e-01  3.58520862e-01 -1.10777504e-01 -1.48026305e-01
  1.13076704e+00  7.08742995e-02  3.39752798e-01  7.27158595e-01  1.00000000e+00
  1.00000000e+00  1.00000000e+00  1.00000000e+00  1.00000000e+00  3.34945995e-02
  2.34726947e-01  8.13757318e-01  1.00000000e+00  3.34945995e-02  2.34726947e-01
  8.13757318e-01  1.00000000e+00
Coordinates of each shell                  R   N=         570
 -1.26236547e+00 -1.89965136e+00 -3.30127120e+00 -1.26236547e+00 -1.89965136e+00
 -3.30127120e+00 -1.26236547e+00 -1.89965136e+00 -3.30127120e+00 -1.26236547e+00
 -1.89965136e+00 -3.30127120e+00 -1.26236547e+00 -1.89965136e+00 -3.30127120e+00
 -1.26236547e+00 -1.89965136e+00 -3.30127120e+00 -1.26236547e+00 -1.89965136e+00
 -3.30127120e+00 -1.26236547e+00 -1.89965136e+00 -3.30127120e+00  2.78507665e+00
  3.69906222e-01 -1.42547847e+00  2.78507665e+00  3.69906222e-01 -1.42547847e+00
  2.78507665e+00  3.69906222e-01 -1.42547847e+00  2.78507665e+00  3.69906222e-01
 -1.42547847e+00  2.78507665e+00  3.69906222e-01 -1.42547847e+00  2.78507665e+00
  3.69906222e-01 -1.42547847e+00  2.78507665e+00  3.69906222e-01 -1.42547847e+00
  2.78507665e+00  3.69906222e-01 -1.42547847e+00  9.77936434e-01 -3.38287703e-01
 -3.23496075e+00  9.77936434e-01 -3.38287703e-01 -3.23496075e+00  9.77936434e-01
 -3.38287703e-01 -3.23496075e+00  9.77936434e-01 -3.38287703e-01 -3.23496075e+00
  9.77936434e-01 -3.38287703e-01 -3.23496075e+00  9.77936434e-01 -3.38287703e-01
 -3.23496075e+00  9.77936434e-01 -3.38287703e-01 -3.23496075e+00  9.77936434e-01
 -3.38287703e-01 -3.23496075e+00  4.82704705e+00  1.88918360e+00 -2.01646976e+00
  4.82704705e+00  1.88918360e+00 -2.01646976e+00  4.82704705e+00  1.88918360e+00
 -2.01646976e+00  4.82704705e+00  1.88918360e+00 -2.01646976e+00  4.82704705e+00
  1.88918360e+00 -2.01646976e+00  4.82704705e+00  1.88918360e+00 -2.01646976e+00
  4.82704705e+00  1.88918360e+00 -2.01646976e+00  4.82704705e+00  1.88918360e+00
 -2.01646976e+00  5.14869459e+00  2.75460545e+00 -4.51795363e+00  5.14869459e+00
  2.75460545e+00 -4.51795363e+00  5.14869459e+00  2.75460545e+00 -4.51795363e+00
  5.14869459e+00  2.75460545e+00 -4.51795363e+00  5.14869459e+00  2.75460545e+00
 -4.51795363e+00  5.14869459e+00  2.75460545e+00 -4.51795363e+00  5.14869459e+00
  2.75460545e+00 -4.51795363e+00  5.14869459e+00  2.75460545e+00 -4.51795363e+00
 -2.09259032e+00 -1.86015953e+00 -5.76815045e+00 -2.09259032e+00 -1.86015953e+00
 -5.76815045e+00 -2.09259032e+00 -1.86015953e+00 -5.76815045e+00 -2.09259032e+00
 -1.86015953e+00 -5.76815045e+00 -2.09259032e+00 -1.86015953e+00 -5.76815045e+00
 -2.09259032e+00 -1.86015953e+00 -5.76815045e+00 -2.09259032e+00 -1.86015953e+00
 -5.76815045e+00 -2.09259032e+00 -1.86015953e+00 -5.76815045e+00 -5.27925281e-01
 -3.80026089e-01 -7.21950087e+00 -5.27925281e-01 -3.80026089e-01 -7.21950087e+00
 -5.27925281e-01 -3.80026089e-01 -7.21950087e+00 -5.27925281e-01 -3.80026089e-01
 -7.21950087e+00 -5.27925281e-01 -3.80026089e-01 -7.21950087e+00 -5.27925281e-01
 -3.80026089e-01 -7.21950087e+00 -5.27925281e-01 -3.80026089e-01 -7.21950087e+00
 -5.27925281e-01 -3.80026089e-01 -7.21950087e+00  1.38770084e+00  5.77526831e-01
 -5.73717756e+00  1.38770084e+00  5.77526831e-01 -5.73717756e+00  1.38770084e+00
  5.77526831e-01 -5.73717756e+00  1.38770084e+00  5.77526831e-01 -5.73717756e+00
  1.38770084e+00  5.77526831e-01 -5.73717756e+00  1.38770084e+00  5.77526831e-01
 -5.73717756e+00  1.38770084e+00  5.77526831e-01 -5.73717756e+00  1.38770084e+00
  5.77526831e-01 -5.73717756e+00  3.43613793e+00  2.11432926e+00 -6.40089160e+00
  3.43613793e+00  2.11432926e+00 -6.40089160e+00  3.43613793e+00  2.11432926e+00
 -6.40089160e+00  3.43613793e+00  2.11432926e+00 -6.40089160e+00  3.43613793e+00
  2.11432926e+00 -6.40089160e+00  3.43613793e+00  2.11432926e+00 -6.40089160e+00
  3.43613793e+00  2.11432926e+00 -6.40089160e+00  3.43613793e+00  2.11432926e+00
 -6.40089160e+00 -7.10896244e-01 -1.01256186e-01 -9.09958657e+00 -7.10896244e-01
 -1.01256186e-01 -9.09958657e+00 -3.69434162e+00 -2.81189617e+00 -6.61195581e+00
 -3.69434162e+00 -2.81189617e+00 -6.61195581e+00 -2.52570112e+00 -3.27895831e+00
 -1.15027293e+00 -2.52570112e+00 -3.27895831e+00 -1.15027293e+00 -2.52570112e+00
 -3.27895831e+00 -1.15027293e+00 -2.52570112e+00 -3.27895831e+00 -1.15027293e+00
 -2.52570112e+00 -3.27895831e+00 -1.15027293e+00 -2.52570112e+00 -3.27895831e+00
 -1.15027293e+00 -2.52570112e+00 -3.27895831e+00 -1.15027293e+00 -2.52570112e+00
 -3.27895831e+00 -1.15027293e+00 -4.24584012e+00 -1.45532884e+00  3.06879707e-01
 -4.24584012e+00 -1.45532884e+00  3.06879707e-01 -4.24584012e+00 -1.45532884e+00
  3.06879707e-01 -4.24584012e+00 -1.45532884e+00  3.06879707e-01 -4.24584012e+00