Generated by Psi4
     FORCE                           RHF                       TESTBAS
Number of atoms                            I               22
Charge                                     I                0
Multiplicity                               I                1
Number of electrons                        I               86
Number of alpha electrons                  I               43
Number of beta electrons                   I               43
Number of basis functions                  I              248
Number of independent functions            I              248
Atomic numbers                             I   N=          22
           6           6           6           6           6           6
           1           1           1           8           6           8
           1           1           6           6           1           1
           6           1           1           1
Nuclear charges                            R   N=          22
  6.00000000e+00  6.00000000e+00  6.00000000e+00  6.00000000e+00  6.00000000e+00
  6.00000000e+00  1.00000000e+00  1.00000000e+00  1.00000000e+00  8.00000000e+00
  6.00000000e+00  8.00000000e+00  1.00000000e+00  1.00000000e+00  6.00000000e+00
  6.00000000e+00  1.00000000e+00  1.00000000e+00  6.00000000e+00  1.00000000e+00
  1.00000000e+00  1.00000000e+00
Current cartesian coordinates              R   N=          66
 -1.33323360e+00  8.89855698e-02  1.77852234e+00  9.23424639e-01  1.42968657e+00
  2.13795259e+00  2.59887491e+00  1.94228439e+00  1.38305876e-01  1.93113024e+00
  1.04210246e+00 -2.22066548e+00 -2.99977170e-01 -2.95878864e-01 -2.60220318e+00
 -1.96749307e+00 -7.99698692e-01 -6.55333324e-01  1.40430108e+00  2.08336348e+00
  4.02453539e+00 -3.70698573e+00 -1.83434940e+00 -9.96523501e-01  4.33428187e+00
  2.99565160e+00  4.30473077e-01 -5.36109625e-01 -8.88455441e-01 -5.13004805e+00
  1.88881014e+00 -3.30740238e-01 -6.20339753e+00  3.16945779e+00  1.33777012e+00
 -4.49758977e+00  1.63417933e+00  6.08812036e-01 -8.02081542e+00  2.97703756e+00
 -2.09171964e+00 -6.38937432e+00 -3.10110822e+00 -4.04691592e-01  3.99698809e+00
 -1.88311053e+00 -1.87366667e+00  6.11698460e+00 -4.75179135e+00 -1.45661505e+00
  3.30261275e+00 -3.82365699e+00  1.39283138e+00  4.74357482e+00 -1.73357162e+00
 -1.10009319e+00  8.51705991e+00 -1.07565076e+00 -3.69674137e+00  5.59109630e+00
 -2.50519581e+00  7.10226329e-01  9.11944159e+00 -8.41915703e-01 -2.24999696e+00
  9.96728876e+00
Integer atomic weights                     I   N=          22
          12          12          12          12          12          12
           1           1           1          15          12          15
           1           1          12          12           1           1
          12           1           1           1
Real atomic weights                        R   N=          22
  1.20000000e+01  1.20000000e+01  1.20000000e+01  1.20000000e+01  1.20000000e+01
  1.20000000e+01  1.00782503e+00  1.00782503e+00  1.00782503e+00  1.59949146e+01
  1.20000000e+01  1.59949146e+01  1.00782503e+00  1.00782503e+00  1.20000000e+01
  1.20000000e+01  1.00782503e+00  1.00782503e+00  1.20000000e+01  1.00782503e+00
  1.00782503e+00  1.00782503e+00
Number of primitive shells                 I              244
Number of contracted shells                I              116
Pure/Cartesian d shells                    I                1
Pure/Cartesian f shells                    I                1
Highest angular momentum                   I                2
Largest degree of contraction              I                6
Shell types                                I   N=         116
           0           0           1           0           1           2
           0           1           0           0           1           0
           1           2           0           1           0           0
           1           0           1           2           0           1
           0           0           1           0           1           2
           0           1           0           0           1           0
           1           2           0           1           0           0
           1           0           1           2           0           1
           0           0           0           0           0           0
           0           0           1           0           1           2
           0           1           0           0           1           0
           1           2           0           1           0           0
           1           0           1           2           0           1
           0           0           0           0           0           0
           1           0           1           2           0           1
           0           0           1           0           1           2
           0           1           0           0           0           0
           0           0           1           0           1           2
           0           1           0           0           0           0
           0           0
Number of primitives per shell             I   N=         116
           6           3           3           1           1           1
           1           1           6           3           3           1
           1           1           1           1           6           3
           3           1           1           1           1           1
           6           3           3           1           1           1
           1           1           6           3           3           1
           1           1           1           1           6           3
           3           1           1           1           1           1
           3           1           3           1           3           1
           6           3           3           1           1           1
           1           1           6           3           3           1
           1           1           1           1           6           3
           3           1           1           1           1           1
           3           1           3           1           6           3
           3           1           1           1           1           1
           6           3           3           1           1           1
           1           1           3           1           3           1
           6           3           3           1           1           1
           1           1           3           1           3           1
           3           1
Shell to atom map                          I   N=         116
           1           1           1           1           1           1
           1           1           2           2           2           2
           2           2           2           2           3           3
           3           3           3           3           3           3
           4           4           4           4           4           4
           4           4           5           5           5           5
           5           5           5           5           6           6
           6           6           6           6           6           6
           7           7           8           8           9           9
          10          10          10          10          10          10
          10          10          11          11          11          11
          11          11          11          11          12          12
          12          12          12          12          12          12
          13          13          14          14          15          15
          15          15          15          15          15          15
          16          16          16          16          16          16
          16          16          17          17          18          18
          19          19          19          19          19          19
          19          19          20          20          21          21
          22          22
Primitive exponents                        R   N=         244
  3.04752490e+03  4.57369510e+02  1.03948690e+02  2.92101550e+01  9.28666300e+00
  3.16392700e+00  7.86827240e+00  1.88128850e+00  5.44249300e-01  7.86827240e+00
  1.88128850e+00  5.44249300e-01  1.68714400e-01  1.68714400e-01  8.00000000e-01
  4.38000000e-02  4.38000000e-02  3.04752490e+03  4.57369510e+02  1.03948690e+02
  2.92101550e+01  9.28666300e+00  3.16392700e+00  7.86827240e+00  1.88128850e+00
  5.44249300e-01  7.86827240e+00  1.88128850e+00  5.44249300e-01  1.68714400e-01
  1.68714400e-01  8.00000000e-01  4.38000000e-02  4.38000000e-02  3.04752490e+03
  4.57369510e+02  1.03948690e+02  2.92101550e+01  9.28666300e+00  3.16392700e+00
  7.86827240e+00  1.88128850e+00  5.44249300e-01  7.86827240e+00  1.88128850e+00
  5.44249300e-01  1.68714400e-01  1.68714400e-01  8.00000000e-01  4.38000000e-02
  4.38000000e-02  3.04752490e+03  4.57369510e+02  1.03948690e+02  2.92101550e+01
  9.28666300e+00  3.16392700e+00  7.86827240e+00  1.88128850e+00  5.44249300e-01
  7.86827240e+00  1.88128850e+00  5.44249300e-01  1.68714400e-01  1.68714400e-01
  8.00000000e-01  4.38000000e-02  4.38000000e-02  3.04752490e+03  4.57369510e+02
  1.03948690e+02  2.92101550e+01  9.28666300e+00  3.16392700e+00  7.86827240e+00
  1.88128850e+00  5.44249300e-01  7.86827240e+00  1.88128850e+00  5.44249300e-01
  1.68714400e-01  1.68714400e-01  8.00000000e-01  4.38000000e-02  4.38000000e-02
  3.04752490e+03  4.57369510e+02  1.03948690e+02  2.92101550e+01  9.28666300e+00
  3.16392700e+00  7.86827240e+00  1.88128850e+00  5.44249300e-01  7.86827240e+00
  1.88128850e+00  5.44249300e-01  1.68714400e-01  1.68714400e-01  8.00000000e-01
  4.38000000e-02  4.38000000e-02  1.87311370e+01  2.82539370e+00  6.40121700e-01
  1.61277800e-01  1.87311370e+01  2.82539370e+00  6.40121700e-01  1.61277800e-01
  1.87311370e+01  2.82539370e+00  6.40121700e-01  1.61277800e-01  5.48467170e+03
  8.25234950e+02  1.88046960e+02  5.29645000e+01  1.68975700e+01  5.79963530e+00
  1.55396160e+01  3.59993360e+00  1.01376180e+00  1.55396160e+01  3.59993360e+00
  1.01376180e+00  2.70005800e-01  2.70005800e-01  8.00000000e-01  8.45000000e-02
  8.45000000e-02  3.04752490e+03  4.57369510e+02  1.03948690e+02  2.92101550e+01
  9.28666300e+00  3.16392700e+00  7.86827240e+00  1.88128850e+00  5.44249300e-01
  7.86827240e+00  1.88128850e+00  5.44249300e-01  1.68714400e-01  1.68714400e-01
  8.00000000e-01  4.38000000e-02  4.38000000e-02  5.48467170e+03  8.25234950e+02
  1.88046960e+02  5.29645000e+01  1.68975700e+01  5.79963530e+00  1.55396160e+01
  3.59993360e+00  1.01376180e+00  1.55396160e+01  3.59993360e+00  1.01376180e+00
  2.70005800e-01  2.70005800e-01  8.00000000e-01  8.45000000e-02  8.45000000e-02
  1.87311370e+01  2.82539370e+00  6.40121700e-01  1.61277800e-01  1.87311370e+01
  2.82539370e+00  6.40121700e-01  1.61277800e-01  3.04752490e+03  4.57369510e+02
  1.03948690e+02  2.92101550e+01  9.28666300e+00  3.16392700e+00  7.86827240e+00
  1.88128850e+00  5.44249300e-01  7.86827240e+00  1.88128850e+00  5.44249300e-01
  1.68714400e-01  1.68714400e-01  8.00000000e-01  4.38000000e-02  4.38000000e-02
  3.04752490e+03  4.57369510e+02  1.03948690e+02  2.92101550e+01  9.28666300e+00
  3.16392700e+00  7.86827240e+00  1.88128850e+00  5.44249300e-01  7.86827240e+00
  1.88128850e+00  5.44249300e-01  1.68714400e-01  1.68714400e-01  8.00000000e-01
  4.38000000e-02  4.38000000e-02  1.87311370e+01  2.82539370e+00  6.40121700e-01
  1.61277800e-01  1.87311370e+01  2.82539370e+00  6.40121700e-01  1.61277800e-01
  3.04752490e+03  4.57369510e+02  1.03948690e+02  2.92101550e+01  9.28666300e+00
  3.16392700e+00  7.86827240e+00  1.88128850e+00  5.44249300e-01  7.86827240e+00
  1.88128850e+00  5.44249300e-01  1.68714400e-01  1.68714400e-01  8.00000000e-01
  4.38000000e-02  4.38000000e-02  1.87311370e+01  2.82539370e+00  6.40121700e-01
  1.61277800e-01  1.87311370e+01  2.82539370e+00  6.40121700e-01  1.61277800e-01
  1.87311370e+01  2.82539370e+00  6.40121700e-01  1.61277800e-01
Contraction coefficients                   R   N=         244
  1.83470016e-03  1.40373012e-02  6.88426061e-02  2.32184421e-01  4.67941342e-01
  3.62312032e-01 -1.19332409e-01 -1.60854212e-01  1.14345648e+00  6.89990956e-02
  3.16423980e-01  7.44308252e-01  1.00000000e+00  1.00000000e+00  1.00000000e+00
  1.00000000e+00  1.00000000e+00  1.83470016e-03  1.40373012e-02  6.88426061e-02
  2.32184421e-01  4.67941342e-01  3.62312032e-01 -1.19332409e-01 -1.60854212e-01
  1.14345648e+00  6.89990956e-02  3.16423980e-01  7.44308252e-01  1.00000000e+00
  1.00000000e+00  1.00000000e+00  1.00000000e+00  1.00000000e+00  1.83470016e-03
  1.40373012e-02  6.88426061e-02  2.32184421e-01  4.67941342e-01  3.62312032e-01
 -1.19332409e-01 -1.60854212e-01  1.14345648e+00  6.89990956e-02  3.16423980e-01
  7.44308252e-01  1.00000000e+00  1.00000000e+00  1.00000000e+00  1.00000000e+00
  1.00000000e+00  1.83470016e-03  1.40373012e-02  6.88426061e-02  2.32184421e-01
  4.67941342e-01  3.62312032e-01 -1.19332409e-01 -1.60854212e-01  1.14345648e+00
  6.89990956e-02  3.16423980e-01  7.44308252e-01  1.00000000e+00  1.00000000e+00
  1.00000000e+00  1.00000000e+00  1.00000000e+00  1.83470016e-03  1.40373012e-02
  6.88426061e-02  2.32184421e-01  4.67941342e-01  3.62312032e-01 -1.19332409e-01
 -1.60854212e-01  1.14345648e+00  6.89990956e-02  3.16423980e-01  7.44308252e-01
  1.00000000e+00  1.00000000e+00  1.00000000e+00  1.00000000e+00  1.00000000e+00
  1.83470016e-03  1.40373012e-02  6.88426061e-02  2.32184421e-01  4.67941342e-01
  3.62312032e-01 -1.19332409e-01 -1.60854212e-01  1.14345648e+00  6.89990956e-02
  3.16423980e-01  7.44308252e-01  1.00000000e+00  1.00000000e+00  1.00000000e+00
  1.00000000e+00  1.00000000e+00  3.34945995e-02  2.34726947e-01  8.13757318e-01
  1.00000000e+00  3.34945995e-02  2.34726947e-01  8.13757318e-01  1.00000000e+00
  3.34945995e-02  2.34726947e-01  8.13757318e-01  1.00000000e+00  1.83109981e-03
  1.39500985e-02  6.84450927e-02  2.32714275e-01  4.70192950e-01  3.58520862e-01
 -1.10777504e-01 -1.48026305e-01  1.13076704e+00  7.08742995e-02  3.39752798e-01
  7.27158595e-01  1.00000000e+00  1.00000000e+00  1.00000000e+00  1.00000000e+00
  1.00000000e+00  1.83470016e-03  1.40373012e-02  6.88426061e-02  2.32184421e-01
  4.67941342e-01  3.62312032e-01 -1.19332409e-01 -1.60854212e-01  1.14345648e+00
  6.89990956e-02  3.16423980e-01  7.44308252e-01  1.00000000e+00  1.00000000e+00
  1.00000000e+00  1.00000000e+00  1.00000000e+00  1.83109981e-03  1.39500985e-02
  6.84450927e-02  2.32714275e-01  4.70192950e-01  3.58520862e-01 -1.10777504e-01
 -1.48026305e-01  1.13076704e+00  7.08742995e-02  3.39752798e-01  7.27158595e-01
  1.00000000e+00  1.00000000e+00  1.00000000e+00  1.00000000e+00  1.00000000e+00
  3.34945995e-02  2.34726947e-01  8.13757318e-01  1.00000000e+00  3.34945995e-02
  2.34726947e-01  8.13757318e-01  1.00000000e+00  1.83470016e-03  1.40373012e-02
  6.88426061e-02  2.32184421e-01  4.67941342e-01  3.62312032e-01 -1.19332409e-01
 -1.60854212e-01  1.14345648e+00  6.89990956e-02  3.16423980e-01  7.44308252e-01
  1.00000000e+00  1.00000000e+00  1.00000000e+00  1.00000000e+00  1.00000000e+00
  1.83470016e-03  1.40373012e-02  6.88426061e-02  2.32184421e-01  4.67941342e-01
  3.62312032e-01 -1.19332409e-01 -1.60854212e-01  1.14345648e+00  6.89990956e-02
  3.16423980e-01  7.44308252e-01  1.00000000e+00  1.00000000e+00  1.00000000e+00
  1.00000000e+00  1.00000000e+00  3.34945995e-02  2.34726947e-01  8.13757318e-01
  1.00000000e+00  3.34945995e-02  2.34726947e-01  8.13757318e-01  1.00000000e+00
  1.83470016e-03  1.40373012e-02  6.88426061e-02  2.32184421e-01  4.67941342e-01
  3.62312032e-01 -1.19332409e-01 -1.60854212e-01  1.14345648e+00  6.89990956e-02
  3.16423980e-01  7.44308252e-01  1.00000000e+00  1.00000000e+00  1.00000000e+00
  1.00000000e+00  1.00000000e+00  3.34945995e-02  2.34726947e-01  8.13757318e-01
  1.00000000e+00  3.34945995e-02  2.34726947e-01  8.13757318e-01  1.00000000e+00
  3.34945995e-02  2.34726947e-01  8.13757318e-01  1.00000000e+00
Coordinates of each shell                  R   N=         348
 -1.33323360e+00  8.89855698e-02  1.77852234e+00 -1.33323360e+00  8.89855698e-02
  1.77852234e+00 -1.33323360e+00  8.89855698e-02  1.77852234e+00 -1.33323360e+00
  8.89855698e-02  1.77852234e+00 -1.33323360e+00  8.89855698e-02  1.77852234e+00
 -1.33323360e+00  8.89855698e-02  1.77852234e+00 -1.33323360e+00  8.89855698e-02
  1.77852234e+00 -1.33323360e+00  8.89855698e-02  1.77852234e+00  9.23424639e-01
  1.42968657e+00  2.13795259e+00  9.23424639e-01  1.42968657e+00  2.13795259e+00
  9.23424639e-01  1.42968657e+00  2.13795259e+00  9.23424639e-01  1.42968657e+00
  2.13795259e+00  9.23424639e-01  1.42968657e+00  2.13795259e+00  9.23424639e-01
  1.42968657e+00  2.13795259e+00  9.23424639e-01  1.42968657e+00  2.13795259e+00
  9.23424639e-01  1.42968657e+00  2.13795259e+00  2.59887491e+00  1.94228439e+00
  1.38305876e-01  2.59887491e+00  1.94228439e+00  1.38305876e-01  2.59887491e+00
  1.94228439e+00  1.38305876e-01  2.59887491e+00  1.94228439e+00  1.38305876e-01
  2.59887491e+00  1.94228439e+00  1.38305876e-01  2.59887491e+00  1.94228439e+00
  1.38305876e-01  2.59887491e+00  1.94228439e+00  1.38305876e-01  2.59887491e+00
  1.94228439e+00  1.38305876e-01  1.93113024e+00  1.04210246e+00 -2.22066548e+00
  1.93113024e+00  1.04210246e+00 -2.22066548e+00  1.93113024e+00  1.04210246e+00
 -2.22066548e+00  1.93113024e+00  1.04210246e+00 -2.22066548e+00  1.93113024e+00
  1.04210246e+00 -2.22066548e+00  1.93113024e+00  1.04210246e+00 -2.22066548e+00
  1.93113024e+00  1.04210246e+00 -2.22066548e+00  1.93113024e+00  1.04210246e+00
 -2.22066548e+00 -2.99977170e-01 -2.95878864e-01 -2.60220318e+00 -2.99977170e-01
 -2.95878864e-01 -2.60220318e+00 -2.99977170e-01 -2.95878864e-01 -2.60220318e+00
 -2.99977170e-01 -2.95878864e-01 -2.60220318e+00 -2.99977170e-01 -2.95878864e-01
 -2.60220318e+00 -2.99977170e-01 -2.95878864e-01 -2.60220318e+00 -2.99977170e-01
 -2.95878864e-01 -2.60220318e+00 -2.99977170e-01 -2.95878864e-01 -2.60220318e+00
 -1.96749307e+00 -7.99698692e-01 -6.55333324e-01 -1.96749307e+00 -7.99698692e-01
 -6.55333324e-01 -1.96749307e+00 -7.99698692e-01 -6.55333324e-01 -1.96749307e+00
 -7.99698692e-01 -6.55333324e-01 -1.96749307e+00 -7.99698692e-01 -6.55333324e-01
 -1.96749307e+00 -7.99698692e-01 -6.55333324e-01 -1.96749307e+00 -7.99698692e-01
 -6.55333324e-01 -1.96749307e+00 -7.99698692e-01 -6.55333324e-01  1.40430108e+00
  2.08336348e+00  4.02453539e+00  1.40430108e+00  2.08336348e+00  4.02453539e+00
 -3.70698573e+00 -1.83434940e+00 -9.96523501e-01 -3.70698573e+00 -1.83434940e+00
 -9.96523501e-01  4.33428187e+00  2.99565160e+00  4.30473077e-01  4.33428187e+00
  2.99565160e+00  4.30473077e-01 -5.36109625e-01 -8.88455441e-01 -5.13004805e+00
 -5.36109625e-01 -8.88455441e-01 -5.13004805e+00 -5.36109625e-01 -8.88455441e-01
 -5.13004805e+00 -5.36109625e-01 -8.88455441e-01 -5.13004805e+00 -5.36109625e-01
 -8.88455441e-01 -5.13004805e+00 -5.36109625e-01 -8.88455441e-01 -5.13004805e+00
 -5.36109625e-01 -8.88455441e-01 -5.13004805e+00 -5.36109625e-01 -8.88455441e-01
 -5.13004805e+00  1.88881014e+00 -3.30740238e-01 -6.20339753e+00  1.88881014e+00
 -3.30740238e-01 -6.20339753e+00  1.88881014e+00 -3.30740238e-01 -6.20339753e+00
  1.88881014e+00 -3.30740238e-01 -6.20339753e+00  1.88881014e+00 -3.30740238e-01
 -6.20339753e+00  1.88881014e+00 -3.30740238e-01 -6.20339753e+00  1.88881014e+00
 -3.30740238e-01 -6.20339753e+00  1.88881014e+00 -3.30740238e-01 -6.20339753e+00
  3.16945779e+00  1.33777012e+00 -4.49758977e+00  3.16945779e+00  1.33777012e+00
 -4.49758977e+00  3.16945779e+00  1.33777012e+00 -4.49758977e+00  3.16945779e+00
  1.33777012e+00 -4.49758977e+00  3.16945779e+00  1.33777012e+00 -4.49758977e+00
  3.16945779e+00  1.33777012e+00 -4.49758977e+00  3.16945779e+00  1.33777012e+00
 -4.49758977e+00  3.16945779e+00  1.33777012e+00 -4.49758977e+00  1.63417933e+00
  6.08812036e-01 -8.02081542e+00  1.63417933e+00  6.08812036e-01 -8.02081542e+00
  2.97703756e+00 -2.09171964e+00 -6.38937432e+00  2.97703756e+00 -2.09171964e+00
 -6.38937432e+00 -3.10110822e+00 -4.04691592e-01  3.99698809e+00 -3.10110822e+00
 -4.04691592e-01  3.99698809e+00 -3.10110822e+00 -4.04691592e-01  3.99698809e+00
 -3.10110822e+00 -4.04691592e-01  3.99698809e+00 -3.10110822e+00 -4.04691592e-01
  3.99698809e+00 -3.10110822e+00 -4.04691592e-01  3.99698809e+00 -3.10110822e+00
 -4.04691592e-01  3.99698809e+00 -3.10110822e+00 -4.04691592e-01  3.99698809e+00
 -1.88311053e+00 -1.87366667e+00  6.11698460e+00 -1.88311053e+00 -1.87366667e+00
  6.11698460e+00 -1.88311053e+00 -1.87366667e+00  6.11698460e+00 -1.88311053e+00
 -1.87366667e+00  6.11698460e+00 -1.88311053e+00 -1.87366667e+00  6.11698460e+00
 -1.88311053e+00 -1.87366667e+00  6.11698460e+00 -1.88311053e+00 -1.87366667e+00
  6.11698460e+00 -1.88311053e+00 -1.87366667e+00  6.11698460e+00 -4.75179135e+00
 -1.45661505e+00  3.30261275e+00 -4.75179135e+00 -1.45661505e+00  3.30261275e+00
 -3.82365699e+00  1.39283138e+00  4.74357482e+00 -3.82365699e+00  1.39283138e+00
  4.74357482e+00 -1.73357162e+00 -1.10009319e+00  8.51705991e+00 -1.73357162e+00
 -1.10009319e+00  8.51705991e+00 -1.73357162e+00 -1.10009319e+00  8.51705991e+00
 -1.73357162e+00 -1.10009319e+00  8.51705991e+00 -1.73357162e+00 -1.10009319e+00
  8.51705991e+00 -1.73357162e+00 -1.10009319e+00  8.51705991e+00 -1.73357162e+00
 -1.10009319e+00  8.51705991e+00 -1.73357162e+00 -1.10009319e+00  8.51705991e+00
 -1.07565076e+00 -3.69674137e+00  5.59109630e+00 -1.07565076e+00 -3.69674137e+00
  5.59109630e+00 -2.50519581e+00  7.10226329e-01  9.11944159e+00 -2.50519581e+00
  7.10226329e-01  9.11944159e+00 -8.41915703e-01 -2.24999696e+00  9.96728876e+00
 -8.41915703e-01 -2.24999696e+00  9.96728876e+00
Total Energy                               R     -5.375052917942485e+02
Alpha Orbital Energies                     R   N=         248
 -1.92034039e+01 -1.92027685e+01 -1.03121891e+01 -1.02562551e+01 -1.02547510e+01
 -1.02074604e+01 -1.02042453e+01 -1.02027779e+01 -1.02012504e+01 -1.02007356e+01
 -1.01960696e+01 -1.01881781e+01 -1.13362144e+00 -1.04183516e+00 -8.69735549e-01
 -8.08147109e-01 -7.62863694e-01 -7.60600810e-01 -7.03385959e-01 -6.67397257e-01
 -6.29741975e-01 -6.13057973e-01 -5.64213555e-01 -5.31343312e-01 -5.26117395e-01
 -5.22713127e-01 -4.93975566e-01 -4.66580990e-01 -4.53224891e-01 -4.46162454e-01
 -4.37518492e-01 -4.14197714e-01 -3.98341345e-01 -3.95098772e-01 -3.89769481e-01
 -3.69624684e-01 -3.63215825e-01 -3.56745399e-01 -3.56273356e-01 -3.15317138e-01
 -2.66334263e-01 -2.53999774e-01 -2.14441000e-01 -2.00224186e-02 -6.99129167e-03
  4.35256972e-03  6.36110153e-03  1.34948188e-02  2.24722213e-02  2.67669959e-02
  3.16246391e-02  3.59969376e-02  4.03124270e-02  4.32238691e-02  5.23608798e-02
  6.29498231e-02  6.93600573e-02  7.59845442e-02  7.85789199e-02  8.59302815e-02
  9.71573991e-02  1.00240692e-01  1.04109910e-01  1.11968218e-01  1.19594414e-01
  1.24037760e-01  1.28121598e-01  1.37196837e-01  1.39394417e-01  1.44143521e-01
  1.53028093e-01  1.56524556e-01  1.59761088e-01  1.63219146e-01  1.70490622e-01
  1.76323944e-01  1.79703695e-01  1.87119646e-01  1.97853076e-01  2.00100563e-01
  2.07668907e-01  2.09714947e-01  2.13132079e-01  2.18426095e-01  2.21385484e-01
  2.23620191e-01  2.34151997e-01  2.40014136e-01  2.41923400e-01  2.50563025e-01
  2.52249616e-01  2.61700493e-01  2.69722551e-01  2.73539236e-01  2.79223060e-01
  2.87168224e-01  2.94318727e-01  2.96868515e-01  3.02374901e-01  3.07391343e-01
  3.08613937e-01  3.20095728e-01  3.24634382e-01  3.28717469e-01  3.33336191e-01
  3.42450045e-01  3.54238758e-01  3.69768443e-01  3.74378038e-01  3.92345127e-01
  4.02713758e-01  4.17662144e-01  4.30563635e-01  4.42475201e-01  4.52168430e-01
  4.66954707e-01  5.82559044e-01  6.16776180e-01  6.32707335e-01  6.39194902e-01
  6.61163351e-01  6.68918535e-01  6.78901642e-01  6.95080668e-01  6.99318696e-01
  7.12577877e-01  7.20106976e-01  7.23182805e-01  7.33608344e-01  7.49469321e-01
  7.66876641e-01  7.73602975e-01  7.83641610e-01  7.96562690e-01  8.11159306e-01
  8.24737226e-01  8.42279670e-01  8.63988616e-01  8.79138577e-01  8.90626206e-01
  9.07817692e-01  9.24808103e-01  9.40466138e-01  9.43015652e-01  9.55711491e-01
  9.84667420e-01  1.00805084e+00  1.01034827e+00  1.03154735e+00  1.05137119e+00
  1.06368981e+00  1.08990478e+00  1.10637163e+00  1.13237593e+00  1.14911123e+00
  1.16594016e+00  1.17782505e+00  1.17860782e+00  1.19905740e+00  1.20113368e+00
  1.23194379e+00  1.24161304e+00  1.25413341e+00  1.25954094e+00  1.27217473e+00
  1.29373310e+00  1.30757065e+00  1.33466758e+00  1.35240028e+00  1.36199109e+00
  1.38778623e+00  1.40618311e+00  1.41522015e+00  1.42633239e+00  1.44742803e+00
  1.46688200e+00  1.48243991e+00  1.48694943e+00  1.52265386e+00  1.58600264e+00
  1.60595416e+00  1.63482212e+00  1.67183161e+00  1.76827951e+00  1.78998892e+00
  1.79184229e+00  1.82625999e+00  1.85031493e+00  1.86161643e+00  1.87596408e+00
  1.91071527e+00  1.91421126e+00  1.92374669e+00  1.94195221e+00  1.97216142e+00
  1.98963718e+00  1.99862630e+00  2.00026001e+00  2.02494070e+00  2.04143902e+00
  2.08731930e+00  2.10228297e+00  2.11827307e+00  2.12945947e+00  2.19151127e+00
  2.21034170e+00  2.21893068e+00  2.22831681e+00  2.26649967e+00  2.29996725e+00
  2.31546858e+00  2.31695402e+00  2.36271380e+00  2.40491961e+00  2.41194685e+00
  2.46627516e+00  2.48250888e+00  2.53083803e+00  2.55361538e+00  2.56246684e+00
  2.60090141e+00  2.65604681e+00  2.66591241e+00  2.71463333e+00  2.73937961e+00
  2.79427554e+00  2.84006280e+00  2.84733002e+00  2.86270447e+00  2.89689440e+00
  2.92423331e+00  2.94792911e+00  3.06957185e+00  3.08327697e+00  3.23942602e+00
  3.46532537e+00  4.20302991e+00  4.23595130e+00  4.26572729e+00  4.27291085e+00
  4.33149189e+00  4.37954175e+00  4.43599043e+00  4.45590157e+00  4.51549286e+00
  4.53212668e+00  4.61611177e+00  5.00452379e+00
Alpha MO coefficients                      R   N=       61504
 -2.56963052e-06 -9.51672130e-06 -2.29912077e-05 -6.37240628e-06  2.07407295e-05
 -5.25161652e-05  5.42013228e-04  2.72583508e-04 -1.41321010e-04 -3.17065852e-06
 -6.25899196e-06 -6.02767918e-06  2.64486933e-07 -6.83309123e-06 -7.24540040e-06
  1.03877849e-04  7.43644885e-03  4.79021269e-03  2.07621844e-03  7.62637531e-07
  4.62923865e-06  9.31490644e-06  9.87157360e-06  4.20624503e-06 -3.74371273e-04
  1.85317249e-04  1.00980734e-04  6.87660050e-05  2.46293901e-07 -2.78026493e-06
  2.08978184e-06 -7.81505319e-07 -9.54813164e-06 -3.79890851e-06 -4.88756403e-03
  6.66179269e-03  3.55125501e-03 -1.42465202e-03 -6.33557523e-06 -1.28979474e-05
  9.64028847e-07  8.75825141e-06  3.40020310e-05  3.81185280e-04  3.68613525e-06
 -2.62427630e-05 -1.73177998e-04 -5.61092707e-06 -1.26110923e-05 -5.08162204e-05
  1.53175093e-06 -5.27442113e-06 -1.45775976e-05  1.81851970e-02  1.65215821e-03
 -1.63084900e-03 -1.08980435e-02 -1.26427942e-05 -1.91901492e-04 -3.78777557e-05
 -2.55530669e-05 -1.21127920e-05  1.38958202e-03 -3.95482787e-04 -3.73508636e-04
 -6.03185721e-04  4.85288487e-05  2.78822370e-05  1.05293186e-04  4.79424261e-05
  5.59069742e-05  5.88118362e-05  4.44350044e-03 -1.23845897e-02 -9.64286246e-03
 -1.32970497e-02  5.76528498e-05  6.89027327e-06  4.31339246e-05  9.43965278e-05
  3.97312017e-04 -1.06448722e-04 -1.53966951e-03 -6.37849385e-04  6.27992604e-04
  9.36802723e-05  9.70365688e-05 -2.64280635e-04 -3.00636759e-05 -2.20256919e-05
 -1.05957735e-04 -4.55581905e-02 -3.43065772e-03 -3.03931524e-03 -1.79170557e-03
  1.38281410e-05  4.15603554e-05  3.53586506e-07  7.64726626e-06  6.64715781e-06
 -1.34471638e-03 -5.78117675e-04 -1.52116734e-04  1.02293665e-03  2.18064759e-05
  1.53089110e-05  2.29887254e-05  4.46004807e-06  1.35079006e-05  1.17392425e-05
  2.46095545e-02  2.15098190e-03  1.77981473e-03  1.29428156e-03 -5.37385271e-06
  4.01879894e-05  5.09789756e-05 -3.55728689e-04 -5.61581882e-06 -4.66688066e-05
 -9.92562069e-01 -2.53776997e-02 -9.38243561e-04 -4.09413622e-04 -5.67933261e-04
 -1.48739587e-02  1.10394591e-03  4.59919946e-04  4.25719808e-04  8.82187345e-03
  8.59664049e-03  8.82250208e-03  9.25236102e-05 -2.71923611e-05  6.38200951e-05
  8.51427174e-03 -2.27008768e-04  6.57544968e-05  2.72158975e-04  2.04556106e-05
 -2.59108239e-05  3.12344974e-04  5.16046556e-05 -1.84077468e-04  6.97918527e-04
  2.03019691e-04  1.54039672e-04  8.03552571e-05 -3.75943640e-04  3.42694543e-05
 -5.80922875e-05 -1.04713970e-04  2.60201155e-04  4.50029216e-05 -4.73459453e-03
  4.63570466e-04 -3.79057280e-04 -1.13603828e-03  1.72588468e-03 -1.37006081e-05
  4.11622389e-06 -3.10580578e-06  2.07094176e-06  2.10211537e-06  4.34249612e-05
  9.64320130e-05 -1.72001523e-06  2.77862835e-05 -3.36235842e-05 -5.73280619e-05
  3.49059899e-05  8.62963601e-06 -2.14442661e-06 -2.70545912e-03  1.11980123e-03
  6.15850867e-04  8.62542749e-05 -5.28815905e-05 -1.89737175e-04 -3.81989111e-05
 -2.55520748e-04 -6.05635944e-07 -1.21052923e-05  5.93597950e-06 -7.78909244e-06
 -2.15259798e-05  3.07163278e-04  7.50808759e-05  7.38749176e-05 -6.07650945e-05
  1.39015449e-06  4.46907278e-06  9.33040038e-06 -5.64008213e-06 -5.21678343e-06
 -2.54039764e-06  4.57980467e-03  2.72842660e-04  5.91264072e-05 -1.14295753e-03
 -1.48887866e-06 -1.59158832e-06 -3.48327549e-06  4.84911333e-06  7.03765567e-06
 -6.29298134e-06  2.61742281e-05 -8.48328921e-05 -6.62321151e-05 -2.77779817e-06
 -5.82525310e-06 -6.60786558e-06 -5.26171206e-07 -2.45574785e-06  7.64905520e-07
 -4.50027529e-04 -2.35069373e-05  2.41065221e-05 -9.52006573e-04 -2.03828610e-06
  6.09669964e-05 -1.50285989e-05 -1.96195653e-05  3.52838637e-07 -5.24199967e-07
 -3.46064135e-06 -2.77012809e-07 -3.52773986e-06  5.11577872e-05  8.82450161e-07
  5.55993369e-06 -3.11135323e-05  4.21381592e-07  5.16125776e-07  4.87694296e-06
  2.05713353e-07  8.02951647e-07 -5.29584084e-07  1.56947126e-03 -4.69440555e-05
 -1.74283829e-04 -2.65700887e-04 -2.45468639e-07 -9.81425173e-05 -8.93789277e-07