Generated by Psi4
     FORCE                           RHF                       TESTBAS
Number of atoms                            I               31
Charge                                     I                0
Multiplicity                               I                1
Number of electrons                        I              114
Number of alpha electrons                  I               57
Number of beta electrons                   I               57
Number of basis functions                  I              317
Number of independent functions            I              317
Atomic numbers                             I   N=          31
           8           6           6           7           6           7
           6           8           8           1           1           6
           6           6           6           1           1           1
           1           1           1           1           1           6
           1           6           1           1           1           1
           1
Nuclear charges                            R   N=          31
  8.00000000e+00  6.00000000e+00  6.00000000e+00  7.00000000e+00  6.00000000e+00
  7.00000000e+00  6.00000000e+00  8.00000000e+00  8.00000000e+00  1.00000000e+00
  1.00000000e+00  6.00000000e+00  6.00000000e+00  6.00000000e+00  6.00000000e+00
  1.00000000e+00  1.00000000e+00  1.00000000e+00  1.00000000e+00  1.00000000e+00
  1.00000000e+00  1.00000000e+00  1.00000000e+00  6.00000000e+00  1.00000000e+00
  6.00000000e+00  1.00000000e+00  1.00000000e+00  1.00000000e+00  1.00000000e+00
  1.00000000e+00
Current cartesian coordinates              R   N=          93
  2.57876489e+00  1.66865815e+00  3.16545378e+00 -8.92627405e-01  3.21708615e-01
  5.09996773e-01  1.82192026e+00  1.17054377e+00  1.04709811e+00  3.47605496e+00
  1.34519086e+00 -9.89678962e-01  2.91796592e+00  1.09108421e+00 -3.53920702e+00
  4.15088822e-01  4.90047832e-01 -4.04415527e+00 -1.52222496e+00  1.01864122e-01
 -2.31493718e+00  4.48752920e+00  1.38249989e+00 -5.19472939e+00 -3.63822564e+00
 -4.10001001e-01 -3.06675909e+00 -3.73410835e-02  3.17934825e-01 -5.90209290e+00
  5.27686915e+00  1.87714630e+00 -5.89014647e-01 -1.35155277e+00 -2.41606629e+00
  1.66640805e+00  4.97348842e-01 -4.36471878e+00  5.46134982e-01 -2.72632715e+00
  2.31575016e+00  1.66751770e+00 -2.64026553e+00  4.92042749e+00  3.95934279e-01
 -2.24425502e+00  2.52558281e+00  3.66301666e+00 -4.64044678e+00  1.53849902e+00
  1.54683523e+00 -7.51594348e-01  5.76852883e+00  5.03028248e-01 -3.94458764e+00
  6.21139357e+00  1.35439093e+00 -3.20844205e+00  4.83701090e+00 -1.59394687e+00
  2.43395150e+00 -4.05433003e+00  1.22095549e+00  5.21917616e-01 -4.32810005e+00
 -1.52447377e+00 -4.94544663e-02 -6.28010063e+00  1.09716833e+00 -1.36379181e+00
 -2.50204035e+00  4.58211884e+00 -3.26172069e+00 -2.89805707e+00  1.01535971e+00
 -2.22179246e+00 -5.06385677e+00  5.64935712e+00 -2.64927616e+00 -1.05272197e+00
  5.30860170e+00  5.16036551e-01 -2.03126471e+00  5.31202935e+00 -4.05881175e+00
 -5.63316323e+00  4.87043974e+00 -2.42585914e+00 -4.94338170e+00  7.70721531e+00
 -8.68716471e-01 -6.58017051e+00  5.25637069e+00
Integer atomic weights                     I   N=          31
          15          12          12          14          12          14
          12          15          15           1           1          12
          12          12          12           1           1           1
           1           1           1           1           1          12
           1          12           1           1           1           1
           1
Real atomic weights                        R   N=          31
  1.59949146e+01  1.20000000e+01  1.20000000e+01  1.40030740e+01  1.20000000e+01
  1.40030740e+01  1.20000000e+01  1.59949146e+01  1.59949146e+01  1.00782503e+00
  1.00782503e+00  1.20000000e+01  1.20000000e+01  1.20000000e+01  1.20000000e+01
  1.00782503e+00  1.00782503e+00  1.00782503e+00  1.00782503e+00  1.00782503e+00
  1.00782503e+00  1.00782503e+00  1.00782503e+00  1.20000000e+01  1.00782503e+00
  1.20000000e+01  1.00782503e+00  1.00782503e+00  1.00782503e+00  1.00782503e+00
  1.00782503e+00
Number of primitive shells                 I              319
Number of contracted shells                I              152
Pure/Cartesian d shells                    I                1
Pure/Cartesian f shells                    I                1
Highest angular momentum                   I                2
Largest degree of contraction              I                6
Shell types                                I   N=         152
           0           0           1           0           1           2
           0           1           0           0           1           0
           1           2           0           1           0           0
           1           0           1           2           0           1
           0           0           1           0           1           2
           0           1           0           0           1           0
           1           2           0           1           0           0
           1           0           1           2           0           1
           0           0           1           0           1           2
           0           1           0           0           1           0
           1           2           0           1           0           0
           1           0           1           2           0           1
           0           0           0           0           0           0
           1           0           1           2           0           1
           0           0           1           0           1           2
           0           1           0           0           1           0
           1           2           0           1           0           0
           1           0           1           2           0           1
           0           0           0           0           0           0
           0           0           0           0           0           0
           0           0           0           0           0           0
           1           0           1           2           0           1
           0           0           0           0           1           0
           1           2           0           1           0           0
           0           0           0           0           0           0
           0           0
Number of primitives per shell             I   N=         152
           6           3           3           1           1           1
           1           1           6           3           3           1
           1           1           1           1           6           3
           3           1           1           1           1           1
           6           3           3           1           1           1
           1           1           6           3           3           1
           1           1           1           1           6           3
           3           1           1           1           1           1
           6           3           3           1           1           1
           1           1           6           3           3           1
           1           1           1           1           6           3
           3           1           1           1           1           1
           3           1           3           1           6           3
           3           1           1           1           1           1
           6           3           3           1           1           1
           1           1           6           3           3           1
           1           1           1           1           6           3
           3           1           1           1           1           1
           3           1           3           1           3           1
           3           1           3           1           3           1
           3           1           3           1           6           3
           3           1           1           1           1           1
           3           1           6           3           3           1
           1           1           1           1           3           1
           3           1           3           1           3           1
           3           1
Shell to atom map                          I   N=         152
           1           1           1           1           1           1
           1           1           2           2           2           2
           2           2           2           2           3           3
           3           3           3           3           3           3
           4           4           4           4           4           4
           4           4           5           5           5           5
           5           5           5           5           6           6
           6           6           6           6           6           6
           7           7           7           7           7           7
           7           7           8           8           8           8
           8           8           8           8           9           9
           9           9           9           9           9           9
          10          10          11          11          12          12
          12          12          12          12          12          12
          13          13          13          13          13          13
          13          13          14          14          14          14
          14          14          14          14          15          15
          15          15          15          15          15          15
          16          16          17          17          18          18
          19          19          20          20          21          21
          22          22          23          23          24          24
          24          24          24          24          24          24
          25          25          26          26          26          26
          26          26          26          26          27          27
          28          28          29          29          30          30
          31          31
Primitive exponents                        R   N=         319
  5.48467170e+03  8.25234950e+02  1.88046960e+02  5.29645000e+01  1.68975700e+01
  5.79963530e+00  1.55396160e+01  3.59993360e+00  1.01376180e+00  1.55396160e+01
  3.59993360e+00  1.01376180e+00  2.70005800e-01  2.70005800e-01  8.00000000e-01
  8.45000000e-02  8.45000000e-02  3.04752490e+03  4.57369510e+02  1.03948690e+02
  2.92101550e+01  9.28666300e+00  3.16392700e+00  7.86827240e+00  1.88128850e+00
  5.44249300e-01  7.86827240e+00  1.88128850e+00  5.44249300e-01  1.68714400e-01
  1.68714400e-01  8.00000000e-01  4.38000000e-02  4.38000000e-02  3.04752490e+03
  4.57369510e+02  1.03948690e+02  2.92101550e+01  9.28666300e+00  3.16392700e+00
  7.86827240e+00  1.88128850e+00  5.44249300e-01  7.86827240e+00  1.88128850e+00
  5.44249300e-01  1.68714400e-01  1.68714400e-01  8.00000000e-01  4.38000000e-02
  4.38000000e-02  4.17351100e+03  6.27457900e+02  1.42902100e+02  4.02343300e+01
  1.28202100e+01  4.39043700e+00  1.16263580e+01  2.71628000e+00  7.72218000e-01
  1.16263580e+01  2.71628000e+00  7.72218000e-01  2.12031300e-01  2.12031300e-01
  8.00000000e-01  6.39000000e-02  6.39000000e-02  3.04752490e+03  4.57369510e+02
  1.03948690e+02  2.92101550e+01  9.28666300e+00  3.16392700e+00  7.86827240e+00
  1.88128850e+00  5.44249300e-01  7.86827240e+00  1.88128850e+00  5.44249300e-01
  1.68714400e-01  1.68714400e-01  8.00000000e-01  4.38000000e-02  4.38000000e-02
  4.17351100e+03  6.27457900e+02  1.42902100e+02  4.02343300e+01  1.28202100e+01
  4.39043700e+00  1.16263580e+01  2.71628000e+00  7.72218000e-01  1.16263580e+01
  2.71628000e+00  7.72218000e-01  2.12031300e-01  2.12031300e-01  8.00000000e-01
  6.39000000e-02  6.39000000e-02  3.04752490e+03  4.57369510e+02  1.03948690e+02
  2.92101550e+01  9.28666300e+00  3.16392700e+00  7.86827240e+00  1.88128850e+00
  5.44249300e-01  7.86827240e+00  1.88128850e+00  5.44249300e-01  1.68714400e-01
  1.68714400e-01  8.00000000e-01  4.38000000e-02  4.38000000e-02  5.48467170e+03
  8.25234950e+02  1.88046960e+02  5.29645000e+01  1.68975700e+01  5.79963530e+00
  1.55396160e+01  3.59993360e+00  1.01376180e+00  1.55396160e+01  3.59993360e+00
  1.01376180e+00  2.70005800e-01  2.70005800e-01  8.00000000e-01  8.45000000e-02
  8.45000000e-02  5.48467170e+03  8.25234950e+02  1.88046960e+02  5.29645000e+01
  1.68975700e+01  5.79963530e+00  1.55396160e+01  3.59993360e+00  1.01376180e+00
  1.55396160e+01  3.59993360e+00  1.01376180e+00  2.70005800e-01  2.70005800e-01
  8.00000000e-01  8.45000000e-02  8.45000000e-02  1.87311370e+01  2.82539370e+00
  6.40121700e-01  1.61277800e-01  1.87311370e+01  2.82539370e+00  6.40121700e-01
  1.61277800e-01  3.04752490e+03  4.57369510e+02  1.03948690e+02  2.92101550e+01
  9.28666300e+00  3.16392700e+00  7.86827240e+00  1.88128850e+00  5.44249300e-01
  7.86827240e+00  1.88128850e+00  5.44249300e-01  1.68714400e-01  1.68714400e-01
  8.00000000e-01  4.38000000e-02  4.38000000e-02  3.04752490e+03  4.57369510e+02
  1.03948690e+02  2.92101550e+01  9.28666300e+00  3.16392700e+00  7.86827240e+00
  1.88128850e+00  5.44249300e-01  7.86827240e+00  1.88128850e+00  5.44249300e-01
  1.68714400e-01  1.68714400e-01  8.00000000e-01  4.38000000e-02  4.38000000e-02
  3.04752490e+03  4.57369510e+02  1.03948690e+02  2.92101550e+01  9.28666300e+00
  3.16392700e+00  7.86827240e+00  1.88128850e+00  5.44249300e-01  7.86827240e+00
  1.88128850e+00  5.44249300e-01  1.68714400e-01  1.68714400e-01  8.00000000e-01
  4.38000000e-02  4.38000000e-02  3.04752490e+03  4.57369510e+02  1.03948690e+02
  2.92101550e+01  9.28666300e+00  3.16392700e+00  7.86827240e+00  1.88128850e+00
  5.44249300e-01  7.86827240e+00  1.88128850e+00  5.44249300e-01  1.68714400e-01
  1.68714400e-01  8.00000000e-01  4.38000000e-02  4.38000000e-02  1.87311370e+01
  2.82539370e+00  6.40121700e-01  1.61277800e-01  1.87311370e+01  2.82539370e+00
  6.40121700e-01  1.61277800e-01  1.87311370e+01  2.82539370e+00  6.40121700e-01
  1.61277800e-01  1.87311370e+01  2.82539370e+00  6.40121700e-01  1.61277800e-01
  1.87311370e+01  2.82539370e+00  6.40121700e-01  1.61277800e-01  1.87311370e+01
  2.82539370e+00  6.40121700e-01  1.61277800e-01  1.87311370e+01  2.82539370e+00
  6.40121700e-01  1.61277800e-01  1.87311370e+01  2.82539370e+00  6.40121700e-01
  1.61277800e-01  3.04752490e+03  4.57369510e+02  1.03948690e+02  2.92101550e+01
  9.28666300e+00  3.16392700e+00  7.86827240e+00  1.88128850e+00  5.44249300e-01
  7.86827240e+00  1.88128850e+00  5.44249300e-01  1.68714400e-01  1.68714400e-01
  8.00000000e-01  4.38000000e-02  4.38000000e-02  1.87311370e+01  2.82539370e+00
  6.40121700e-01  1.61277800e-01  3.04752490e+03  4.57369510e+02  1.03948690e+02
  2.92101550e+01  9.28666300e+00  3.16392700e+00  7.86827240e+00  1.88128850e+00
  5.44249300e-01  7.86827240e+00  1.88128850e+00  5.44249300e-01  1.68714400e-01
  1.68714400e-01  8.00000000e-01  4.38000000e-02  4.38000000e-02  1.87311370e+01
  2.82539370e+00  6.40121700e-01  1.61277800e-01  1.87311370e+01  2.82539370e+00
  6.40121700e-01  1.61277800e-01  1.87311370e+01  2.82539370e+00  6.40121700e-01
  1.61277800e-01  1.87311370e+01  2.82539370e+00  6.40121700e-01  1.61277800e-01
  1.87311370e+01  2.82539370e+00  6.40121700e-01  1.61277800e-01
Contraction coefficients                   R   N=         319
  1.83109981e-03  1.39500985e-02  6.84450927e-02  2.32714275e-01  4.70192950e-01
  3.58520862e-01 -1.10777504e-01 -1.48026305e-01  1.13076704e+00  7.08742995e-02
  3.39752798e-01  7.27158595e-01  1.00000000e+00  1.00000000e+00  1.00000000e+00
  1.00000000e+00  1.00000000e+00  1.83470016e-03  1.40373012e-02  6.88426061e-02
  2.32184421e-01  4.67941342e-01  3.62312032e-01 -1.19332409e-01 -1.60854212e-01
  1.14345648e+00  6.89990956e-02  3.16423980e-01  7.44308252e-01  1.00000000e+00
  1.00000000e+00  1.00000000e+00  1.00000000e+00  1.00000000e+00  1.83470016e-03
  1.40373012e-02  6.88426061e-02  2.32184421e-01  4.67941342e-01  3.62312032e-01
 -1.19332409e-01 -1.60854212e-01  1.14345648e+00  6.89990956e-02  3.16423980e-01
  7.44308252e-01  1.00000000e+00  1.00000000e+00  1.00000000e+00  1.00000000e+00
  1.00000000e+00  1.83479944e-03  1.39949958e-02  6.85869792e-02  2.32240930e-01
  4.69069858e-01  3.60454891e-01 -1.14961023e-01 -1.69118034e-01  1.14585223e+00
  6.75800232e-02  3.23907111e-01  7.40895255e-01  1.00000000e+00  1.00000000e+00
  1.00000000e+00  1.00000000e+00  1.00000000e+00  1.83470016e-03  1.40373012e-02
  6.88426061e-02  2.32184421e-01  4.67941342e-01  3.62312032e-01 -1.19332409e-01
 -1.60854212e-01  1.14345648e+00  6.89990956e-02  3.16423980e-01  7.44308252e-01
  1.00000000e+00  1.00000000e+00  1.00000000e+00  1.00000000e+00  1.00000000e+00
  1.83479944e-03  1.39949958e-02  6.85869792e-02  2.32240930e-01  4.69069858e-01
  3.60454891e-01 -1.14961023e-01 -1.69118034e-01  1.14585223e+00  6.75800232e-02
  3.23907111e-01  7.40895255e-01  1.00000000e+00  1.00000000e+00  1.00000000e+00
  1.00000000e+00  1.00000000e+00  1.83470016e-03  1.40373012e-02  6.88426061e-02
  2.32184421e-01  4.67941342e-01  3.62312032e-01 -1.19332409e-01 -1.60854212e-01
  1.14345648e+00  6.89990956e-02  3.16423980e-01  7.44308252e-01  1.00000000e+00
  1.00000000e+00  1.00000000e+00  1.00000000e+00  1.00000000e+00  1.83109981e-03
  1.39500985e-02  6.84450927e-02  2.32714275e-01  4.70192950e-01  3.58520862e-01
 -1.10777504e-01 -1.48026305e-01  1.13076704e+00  7.08742995e-02  3.39752798e-01
  7.27158595e-01  1.00000000e+00  1.00000000e+00  1.00000000e+00  1.00000000e+00
  1.00000000e+00  1.83109981e-03  1.39500985e-02  6.84450927e-02  2.32714275e-01
  4.70192950e-01  3.58520862e-01 -1.10777504e-01 -1.48026305e-01  1.13076704e+00
  7.08742995e-02  3.39752798e-01  7.27158595e-01  1.00000000e+00  1.00000000e+00
  1.00000000e+00  1.00000000e+00  1.00000000e+00  3.34945995e-02  2.34726947e-01
  8.13757318e-01  1.00000000e+00  3.34945995e-02  2.34726947e-01  8.13757318e-01
  1.00000000e+00  1.83470016e-03  1.40373012e-02  6.88426061e-02  2.32184421e-01
  4.67941342e-01  3.62312032e-01 -1.19332409e-01 -1.60854212e-01  1.14345648e+00
  6.89990956e-02  3.16423980e-01  7.44308252e-01  1.00000000e+00  1.00000000e+00
  1.00000000e+00  1.00000000e+00  1.00000000e+00  1.83470016e-03  1.40373012e-02
  6.88426061e-02  2.32184421e-01  4.67941342e-01  3.62312032e-01 -1.19332409e-01
 -1.60854212e-01  1.14345648e+00  6.89990956e-02  3.16423980e-01  7.44308252e-01
  1.00000000e+00  1.00000000e+00  1.00000000e+00  1.00000000e+00  1.00000000e+00
  1.83470016e-03  1.40373012e-02  6.88426061e-02  2.32184421e-01  4.67941342e-01
  3.62312032e-01 -1.19332409e-01 -1.60854212e-01  1.14345648e+00  6.89990956e-02
  3.16423980e-01  7.44308252e-01  1.00000000e+00  1.00000000e+00  1.00000000e+00
  1.00000000e+00  1.00000000e+00  1.83470016e-03  1.40373012e-02  6.88426061e-02
  2.32184421e-01  4.67941342e-01  3.62312032e-01 -1.19332409e-01 -1.60854212e-01
  1.14345648e+00  6.89990956e-02  3.16423980e-01  7.44308252e-01  1.00000000e+00
  1.00000000e+00  1.00000000e+00  1.00000000e+00  1.00000000e+00  3.34945995e-02
  2.34726947e-01  8.13757318e-01  1.00000000e+00  3.34945995e-02  2.34726947e-01
  8.13757318e-01  1.00000000e+00  3.34945995e-02  2.34726947e-01  8.13757318e-01
  1.00000000e+00  3.34945995e-02  2.34726947e-01  8.13757318e-01  1.00000000e+00
  3.34945995e-02  2.34726947e-01  8.13757318e-01  1.00000000e+00  3.34945995e-02
  2.34726947e-01  8.13757318e-01  1.00000000e+00  3.34945995e-02  2.34726947e-01
  8.13757318e-01  1.00000000e+00  3.34945995e-02  2.34726947e-01  8.13757318e-01
  1.00000000e+00  1.83470016e-03  1.40373012e-02  6.88426061e-02  2.32184421e-01
  4.67941342e-01  3.62312032e-01 -1.19332409e-01 -1.60854212e-01  1.14345648e+00
  6.89990956e-02  3.16423980e-01  7.44308252e-01  1.00000000e+00  1.00000000e+00
  1.00000000e+00  1.00000000e+00  1.00000000e+00  3.34945995e-02  2.34726947e-01
  8.13757318e-01  1.00000000e+00  1.83470016e-03  1.40373012e-02  6.88426061e-02
  2.32184421e-01  4.67941342e-01  3.62312032e-01 -1.19332409e-01 -1.60854212e-01
  1.14345648e+00  6.89990956e-02  3.16423980e-01  7.44308252e-01  1.00000000e+00
  1.00000000e+00  1.00000000e+00  1.00000000e+00  1.00000000e+00  3.34945995e-02
  2.34726947e-01  8.13757318e-01  1.00000000e+00  3.34945995e-02  2.34726947e-01
  8.13757318e-01  1.00000000e+00  3.34945995e-02  2.34726947e-01  8.13757318e-01
  1.00000000e+00  3.34945995e-02  2.34726947e-01  8.13757318e-01  1.00000000e+00
  3.34945995e-02  2.34726947e-01  8.13757318e-01  1.00000000e+00
Coordinates of each shell                  R   N=         456
  2.57876489e+00  1.66865815e+00  3.16545378e+00  2.57876489e+00  1.66865815e+00
  3.16545378e+00  2.57876489e+00  1.66865815e+00  3.16545378e+00  2.57876489e+00
  1.66865815e+00  3.16545378e+00  2.57876489e+00  1.66865815e+00  3.16545378e+00
  2.57876489e+00  1.66865815e+00  3.16545378e+00  2.57876489e+00  1.66865815e+00
  3.16545378e+00  2.57876489e+00  1.66865815e+00  3.16545378e+00 -8.92627405e-01
  3.21708615e-01  5.09996773e-01 -8.92627405e-01  3.21708615e-01  5.09996773e-01
 -8.92627405e-01  3.21708615e-01  5.09996773e-01 -8.92627405e-01  3.21708615e-01
  5.09996773e-01 -8.92627405e-01  3.21708615e-01  5.09996773e-01 -8.92627405e-01
  3.21708615e-01  5.09996773e-01 -8.92627405e-01  3.21708615e-01  5.09996773e-01
 -8.92627405e-01  3.21708615e-01  5.09996773e-01  1.82192026e+00  1.17054377e+00
  1.04709811e+00  1.82192026e+00  1.17054377e+00  1.04709811e+00  1.82192026e+00
  1.17054377e+00  1.04709811e+00  1.82192026e+00  1.17054377e+00  1.04709811e+00
  1.82192026e+00  1.17054377e+00  1.04709811e+00  1.82192026e+00  1.17054377e+00
  1.04709811e+00  1.82192026e+00  1.17054377e+00  1.04709811e+00  1.82192026e+00
  1.17054377e+00  1.04709811e+00  3.47605496e+00  1.34519086e+00 -9.89678962e-01
  3.47605496e+00  1.34519086e+00 -9.89678962e-01  3.47605496e+00  1.34519086e+00
 -9.89678962e-01  3.47605496e+00  1.34519086e+00 -9.89678962e-01  3.47605496e+00
  1.34519086e+00 -9.89678962e-01  3.47605496e+00  1.34519086e+00 -9.89678962e-01
  3.47605496e+00  1.34519086e+00 -9.89678962e-01  3.47605496e+00  1.34519086e+00
 -9.89678962e-01  2.91796592e+00  1.09108421e+00 -3.53920702e+00  2.91796592e+00
  1.09108421e+00 -3.53920702e+00  2.91796592e+00  1.09108421e+00 -3.53920702e+00
  2.91796592e+00  1.09108421e+00 -3.53920702e+00  2.91796592e+00  1.09108421e+00
 -3.53920702e+00  2.91796592e+00  1.09108421e+00 -3.53920702e+00  2.91796592e+00
  1.09108421e+00 -3.53920702e+00  2.91796592e+00  1.09108421e+00 -3.53920702e+00
  4.15088822e-01  4.90047832e-01 -4.04415527e+00  4.15088822e-01  4.90047832e-01
 -4.04415527e+00  4.15088822e-01  4.90047832e-01 -4.04415527e+00  4.15088822e-01
  4.90047832e-01 -4.04415527e+00  4.15088822e-01  4.90047832e-01 -4.04415527e+00
  4.15088822e-01  4.90047832e-01 -4.04415527e+00  4.15088822e-01  4.90047832e-01
 -4.04415527e+00  4.15088822e-01  4.90047832e-01 -4.04415527e+00 -1.52222496e+00
  1.01864122e-01 -2.31493718e+00 -1.52222496e+00  1.01864122e-01 -2.31493718e+00
 -1.52222496e+00  1.01864122e-01 -2.31493718e+00 -1.52222496e+00  1.01864122e-01
 -2.31493718e+00 -1.52222496e+00  1.01864122e-01 -2.31493718e+00 -1.52222496e+00
  1.01864122e-01 -2.31493718e+00 -1.52222496e+00  1.01864122e-01 -2.31493718e+00
 -1.52222496e+00  1.01864122e-01 -2.31493718e+00  4.48752920e+00  1.38249989e+00
 -5.19472939e+00  4.48752920e+00  1.38249989e+00 -5.19472939e+00  4.48752920e+00
  1.38249989e+00 -5.19472939e+00  4.48752920e+00  1.38249989e+00 -5.19472939e+00
  4.48752920e+00  1.38249989e+00 -5.19472939e+00  4.48752920e+00  1.38249989e+00
 -5.19472939e+00  4.48752920e+00  1.38249989e+00 -5.19472939e+00  4.48752920e+00
  1.38249989e+00 -5.19472939e+00 -3.63822564e+00 -4.10001001e-01 -3.06675909e+00
 -3.63822564e+00 -4.10001001e-01 -3.06675909e+00 -3.63822564e+00 -4.10001001e-01
 -3.06675909e+00 -3.63822564e+00 -4.10001001e-01 -3.06675909e+00 -3.63822564e+00
 -4.10001001e-01 -3.06675909e+00 -3.63822564e+00 -4.10001001e-01 -3.06675909e+00
 -3.63822564e+00 -4.10001001e-01 -3.06675909e+00 -3.63822564e+00 -4.10001001e-01
 -3.06675909e+00 -3.73410835e-02  3.17934825e-01 -5.90209290e+00 -3.73410835e-02
  3.17934825e-01 -5.90209290e+00  5.27686915e+00  1.87714630e+00 -5.89014647e-01
  5.27686915e+00  1.87714630e+00 -5.89014647e-01 -1.35155277e+00 -2.41606629e+00
  1.66640805e+00 -1.35155277e+00 -2.41606629e+00  1.66640805e+00 -1.35155277e+00
 -2.41606629e+00  1.66640805e+00 -1.35155277e+00 -2.41606629e+00  1.66640805e+00
 -1.35155277e+00 -2.41606629e+00  1.66640805e+00 -1.35155277e+00 -2.41606629e+00
  1.66640805e+00 -1.35155277e+00 -2.41606629e+00  1.66640805e+00 -1.35155277e+00
 -2.41606629e+00  1.66640805e+00  4.97348842e-01 -4.36471878e+00  5.46134982e-01
  4.97348842e-01 -4.36471878e+00  5.46134982e-01  4.97348842e-01 -4.36471878e+00
  5.46134982e-01  4.97348842e-01 -4.36471878e+00  5.46134982e-01  4.97348842e-01
 -4.36471878e+00  5.46134982e-01  4.97348842e-01 -4.36471878e+00  5.46134982e-01
  4.97348842e-01 -4.36471878e+00  5.46134982e-01  4.97348842e-01 -4.36471878e+00
  5.46134982e-01 -2.72632715e+00  2.31575016e+00  1.66751770e+00 -2.72632715e+00
  2.31575016e+00  1.66751770e+00 -2.72632715e+00  2.31575016e+00  1.66751770e+00
 -2.72632715e+00  2.31575016e+00  1.66751770e+00 -2.72632715e+00  2.31575016e+00
  1.66751770e+00 -2.72632715e+00  2.31575016e+00  1.66751770e+00 -2.72632715e+00
  2.31575016e+00  1.66751770e+00 -2.72632715e+00  2.31575016e+00  1.66751770e+00
 -2.64026553e+00  4.92042749e+00  3.95934279e-01 -2.64026553e+00  4.92042749e+00
  3.95934279e-01 -2.64026553e+00  4.92042749e+00  3.95934279e-01 -2.64026553e+00
  4.92042749e+00  3.95934279e-01 -2.64026553e+00  4.92042749e+00  3.95934279e-01
 -2.64026553e+00  4.92042749e+00  3.95934279e-01 -2.64026553e+00  4.92042749e+00
  3.95934279e-01 -2.64026553e+00  4.92042749e+00  3.95934279e-01 -2.24425502e+00
  2.52558281e+00  3.66301666e+00 -2.24425502e+00  2.52558281e+00  3.66301666e+00
 -4.64044678e+00  1.53849902e+00  1.54683523e+00 -4.64044678e+00  1.53849902e+00
  1.54683523e+00 -7.51594348e-01  5.76852883e+00  5.03028248e-01 -7.51594348e-01
  5.76852883e+00  5.03028248e-01 -3.94458764e+00  6.21139357e+00  1.35439093e+00
 -3.94458764e+00  6.21139357e+00  1.35439093e+00 -3.20844205e+00  4.83701090e+00
 -1.59394687e+00 -3.20844205e+00  4.83701090e+00 -1.59394687e+00  2.43395150e+00
 -4.05433003e+00  1.22095549e+00  2.43395150e+00 -4.05433003e+00  1.22095549e+00
  5.21917616e-01 -4.32810005e+00 -1.52447377e+00  5.21917616e-01 -4.32810005e+00
 -1.52447377e+00 -4.94544663e-02 -6.28010063e+00  1.09716833e+00 -4.94544663e-02
 -6.28010063e+00  1.09716833e+00 -1.36379181e+00 -2.50204035e+00  4.58211884e+00
 -1.36379181e+00 -2.50204035e+00  4.58211884e+00 -1.36379181e+00 -2.50204035e+00
  4.58211884e+00 -1.36379181e+00 -2.50204035e+00  4.58211884e+00 -1.36379181e+00
 -2.50204035e+00  4.58211884e+00 -1.36379181e+00 -2.50204035e+00  4.58211884e+00
 -1.36379181e+00 -2.50204035e+00  4.58211884e+00 -1.36379181e+00 -2.50204035e+00
  4.58211884e+00 -3.26172069e+00 -2.89805707e+00  1.01535971e+00 -3.26172069e+00
 -2.89805707e+00  1.01535971e+00 -2.22179246e+00 -5.06385677e+00  5.64935712e+00
 -2.22179246e+00 -5.06385677e+00  5.64935712e+00 -2.22179246e+00 -5.06385677e+00
  5.64935712e+00 -2.22179246e+00 -5.06385677e+00  5.64935712e+00 -2.22179246e+00
 -5.06385677e+00  5.64935712e+00 -2.22179246e+00 -5.06385677e+00  5.64935712e+00
 -2.22179246e+00 -5.06385677e+00  5.64935712e+00 -2.22179246e+00 -5.06385677e+00
  5.64935712e+00 -2.64927616e+00 -1.05272197e+00  5.30860170e+00 -2.64927616e+00
 -1.05272197e+00  5.30860170e+00  5.16036551e-01 -2.03126471e+00  5.31202935e+00
  5.16036551e-01 -2.03126471e+00  5.31202935e+00 -4.05881175e+00 -5.63316323e+00
  4.87043974e+00 -4.05881175e+00 -5.63316323e+00  4.87043974e+00 -2.42585914e+00
 -4.94338170e+00  7.70721531e+00 -2.42585914e+00 -4.94338170e+00  7.70721531e+00
 -8.68716471e-01 -6.58017051e+00  5.25637069e+00 -8.68716471e-01 -6.58017051e+00
  5.25637069e+00
Total Energy                               R     -7.259668378582288e+02
Alpha Orbital Energies                     R   N=         317
 -1.91679051e+01 -1.91673565e+01 -1.91672783e+01 -1.44187181e+01 -1.44180837e+01
 -1.03703751e+01 -1.03375587e+01 -1.03373937e+01 -1.02498783e+01 -1.02228200e+01
 -1.02111520e+01 -1.01957305e+01 -1.01950458e+01 -1.01932462e+01 -1.01866561e+01
 -1.11078091e+00 -1.08330275e+00 -1.08036085e+00 -9.86166219e-01 -9.47559007e-01
 -8.57796297e-01 -7.98498234e-01 -7.55002333e-01 -7.26759557e-01 -7.00912601e-01
 -6.74197196e-01 -6.67109880e-01 -6.38344079e-01 -6.06819045e-01 -5.86927557e-01
 -5.63567377e-01 -5.21334807e-01 -5.17888959e-01 -4.83784898e-01 -4.81372111e-01
 -4.72447932e-01 -4.68929439e-01 -4.62416779e-01 -4.52206923e-01 -4.39040668e-01
 -4.27691965e-01 -4.26273462e-01 -4.21245162e-01 -4.07285955e-01 -3.95409015e-01
 -3.79454193e-01 -3.76043537e-01 -3.71058223e-01 -3.64276169e-01 -3.50669631e-01
 -3.41986366e-01 -3.32667379e-01 -3.28144289e-01 -3.16123060e-01 -3.15287410e-01
 -3.04428100e-01 -2.81860744e-01 -6.33534081e-02 -2.66172648e-02 -9.20521801e-03
  3.80975300e-03  7.68585504e-03  1.07533169e-02  2.13643522e-02  2.46481719e-02
  3.25486176e-02  3.76912172e-02  4.42607545e-02  5.22933629e-02  5.52319959e-02
  5.99112283e-02  6.70951510e-02  6.94437718e-02  7.00808999e-02  7.77907965e-02
  8.30328578e-02  8.63279237e-02  9.39834276e-02  9.50400317e-02  1.03133505e-01
  1.04704885e-01  1.07027993e-01  1.15912095e-01  1.21607515e-01  1.22955906e-01
  1.27749090e-01  1.33840844e-01  1.40782909e-01  1.51541860e-01  1.56817062e-01
  1.60558984e-01  1.62771317e-01  1.66300277e-01  1.70747573e-01  1.76293074e-01
  1.79793370e-01  1.82674944e-01  1.90408856e-01  1.93324338e-01  1.98555346e-01