Generated by Psi4
     FORCE                           RHF                       TESTBAS
Number of atoms                            I               35
Charge                                     I                0
Multiplicity                               I                1
Number of electrons                        I              128
Number of alpha electrons                  I               64
Number of beta electrons                   I               64
Number of basis functions                  I              359
Number of independent functions            I              359
Atomic numbers                             I   N=          35
           8           6           6           7           6           7
           6           8           8           1           1           6
           6           6           6           1           1           1
           1           1           6           1           6           1
           1           6           1           1           1           6
           1           1           1           1           1
Nuclear charges                            R   N=          35
  8.00000000e+00  6.00000000e+00  6.00000000e+00  7.00000000e+00  6.00000000e+00
  7.00000000e+00  6.00000000e+00  8.00000000e+00  8.00000000e+00  1.00000000e+00
  1.00000000e+00  6.00000000e+00  6.00000000e+00  6.00000000e+00  6.00000000e+00
  1.00000000e+00  1.00000000e+00  1.00000000e+00  1.00000000e+00  1.00000000e+00
  6.00000000e+00  1.00000000e+00  6.00000000e+00  1.00000000e+00  1.00000000e+00
  6.00000000e+00  1.00000000e+00  1.00000000e+00  1.00000000e+00  6.00000000e+00
  1.00000000e+00  1.00000000e+00  1.00000000e+00  1.00000000e+00  1.00000000e+00
Current cartesian coordinates              R   N=         105
  3.09633635e+00  1.03027916e+00  2.83691683e+00 -4.78392421e-01  2.92744789e-01
  8.45521087e-02  2.28784876e+00  8.95019558e-01  6.82841219e-01  3.91620267e+00
  1.29333066e+00 -1.33954840e+00  3.31148579e+00  1.43703334e+00 -3.88950652e+00
  7.82520097e-01  1.00974970e+00 -4.42848421e+00 -1.14776928e+00  4.66313323e-01
 -2.73655973e+00  4.87304073e+00  1.89992491e+00 -5.51283533e+00 -3.28880335e+00
  1.24855508e-01 -3.51079853e+00  2.96594385e-01  1.13435624e+00 -6.28150797e+00
  5.74707570e+00  1.67482969e+00 -9.05011887e-01 -1.12795542e+00 -2.51723860e+00
  9.22014558e-01  6.11061232e-01 -4.43012441e+00 -4.17241195e-01 -2.17420783e+00
  2.27334586e+00  1.48682381e+00 -1.77401681e+00  4.95914943e+00  6.24675787e-01
 -1.73559205e+00  2.14298984e+00  3.50172959e+00 -4.14480711e+00  1.71335065e+00
  1.20314225e+00  2.54924303e+00 -4.33936169e+00  3.15704151e-01  6.80578057e-01
 -4.12903042e+00 -2.46535522e+00 -7.18257246e-02 -6.35852740e+00 -1.24587885e-01
 -1.17773748e+00 -2.93971035e+00  3.80706113e+00 -3.05595982e+00 -2.79931028e+00
  2.10704993e-01 -2.15895694e+00 -5.56475494e+00  4.58722073e+00 -2.41270618e+00
 -1.52956458e+00  4.68941333e+00  7.11531697e-01 -2.63845060e+00  4.60270779e+00
 -3.47923068e+00  6.33825811e+00 -6.28348264e-01  4.14538265e-02  5.80946390e+00
  1.11045036e+00 -5.31656134e+00  5.57349565e+00 -1.14641370e+00 -3.09597570e+00
  8.28096091e+00 -1.17554158e+00 -2.52635716e+00 -5.78750910e+00  7.45393678e+00
 -8.43397277e-01 -7.04120843e+00  3.96419724e+00 -3.96435835e+00 -5.94544200e+00
  3.62909421e+00 -7.47854500e-01 -5.44844494e+00  8.46490508e+00 -3.20055786e+00
 -7.67509227e+00  7.97927600e+00 -3.91221169e+00 -4.40764538e+00  8.14415922e+00
Integer atomic weights                     I   N=          35
          15          12          12          14          12          14
          12          15          15           1           1          12
          12          12          12           1           1           1
           1           1          12           1          12           1
           1          12           1           1           1          12
           1           1           1           1           1
Real atomic weights                        R   N=          35
  1.59949146e+01  1.20000000e+01  1.20000000e+01  1.40030740e+01  1.20000000e+01
  1.40030740e+01  1.20000000e+01  1.59949146e+01  1.59949146e+01  1.00782503e+00
  1.00782503e+00  1.20000000e+01  1.20000000e+01  1.20000000e+01  1.20000000e+01
  1.00782503e+00  1.00782503e+00  1.00782503e+00  1.00782503e+00  1.00782503e+00
  1.20000000e+01  1.00782503e+00  1.20000000e+01  1.00782503e+00  1.00782503e+00
  1.20000000e+01  1.00782503e+00  1.00782503e+00  1.00782503e+00  1.20000000e+01
  1.00782503e+00  1.00782503e+00  1.00782503e+00  1.00782503e+00  1.00782503e+00
Number of primitive shells                 I              361
Number of contracted shells                I              172
Pure/Cartesian d shells                    I                1
Pure/Cartesian f shells                    I                1
Highest angular momentum                   I                2
Largest degree of contraction              I                6
Shell types                                I   N=         172
           0           0           1           0           1           2
           0           1           0           0           1           0
           1           2           0           1           0           0
           1           0           1           2           0           1
           0           0           1           0           1           2
           0           1           0           0           1           0
           1           2           0           1           0           0
           1           0           1           2           0           1
           0           0           1           0           1           2
           0           1           0           0           1           0
           1           2           0           1           0           0
           1           0           1           2           0           1
           0           0           0           0           0           0
           1           0           1           2           0           1
           0           0           1           0           1           2
           0           1           0           0           1           0
           1           2           0           1           0           0
           1           0           1           2           0           1
           0           0           0           0           0           0
           0           0           0           0           0           0
           1           0           1           2           0           1
           0           0           0           0           1           0
           1           2           0           1           0           0
           0           0           0           0           1           0
           1           2           0           1           0           0
           0           0           0           0           0           0
           1           0           1           2           0           1
           0           0           0           0           0           0
           0           0           0           0
Number of primitives per shell             I   N=         172
           6           3           3           1           1           1
           1           1           6           3           3           1
           1           1           1           1           6           3
           3           1           1           1           1           1
           6           3           3           1           1           1
           1           1           6           3           3           1
           1           1           1           1           6           3
           3           1           1           1           1           1
           6           3           3           1           1           1
           1           1           6           3           3           1
           1           1           1           1           6           3
           3           1           1           1           1           1
           3           1           3           1           6           3
           3           1           1           1           1           1
           6           3           3           1           1           1
           1           1           6           3           3           1
           1           1           1           1           6           3
           3           1           1           1           1           1
           3           1           3           1           3           1
           3           1           3           1           6           3
           3           1           1           1           1           1
           3           1           6           3           3           1
           1           1           1           1           3           1
           3           1           6           3           3           1
           1           1           1           1           3           1
           3           1           3           1           6           3
           3           1           1           1           1           1
           3           1           3           1           3           1
           3           1           3           1
Shell to atom map                          I   N=         172
           1           1           1           1           1           1
           1           1           2           2           2           2
           2           2           2           2           3           3
           3           3           3           3           3           3
           4           4           4           4           4           4
           4           4           5           5           5           5
           5           5           5           5           6           6
           6           6           6           6           6           6
           7           7           7           7           7           7
           7           7           8           8           8           8
           8           8           8           8           9           9
           9           9           9           9           9           9
          10          10          11          11          12          12
          12          12          12          12          12          12
          13          13          13          13          13          13
          13          13          14          14          14          14
          14          14          14          14          15          15
          15          15          15          15          15          15
          16          16          17          17          18          18
          19          19          20          20          21          21
          21          21          21          21          21          21
          22          22          23          23          23          23
          23          23          23          23          24          24
          25          25          26          26          26          26
          26          26          26          26          27          27
          28          28          29          29          30          30
          30          30          30          30          30          30
          31          31          32          32          33          33
          34          34          35          35
Primitive exponents                        R   N=         361
  5.48467170e+03  8.25234950e+02  1.88046960e+02  5.29645000e+01  1.68975700e+01
  5.79963530e+00  1.55396160e+01  3.59993360e+00  1.01376180e+00  1.55396160e+01
  3.59993360e+00  1.01376180e+00  2.70005800e-01  2.70005800e-01  8.00000000e-01
  8.45000000e-02  8.45000000e-02  3.04752490e+03  4.57369510e+02  1.03948690e+02
  2.92101550e+01  9.28666300e+00  3.16392700e+00  7.86827240e+00  1.88128850e+00
  5.44249300e-01  7.86827240e+00  1.88128850e+00  5.44249300e-01  1.68714400e-01
  1.68714400e-01  8.00000000e-01  4.38000000e-02  4.38000000e-02  3.04752490e+03
  4.57369510e+02  1.03948690e+02  2.92101550e+01  9.28666300e+00  3.16392700e+00
  7.86827240e+00  1.88128850e+00  5.44249300e-01  7.86827240e+00  1.88128850e+00
  5.44249300e-01  1.68714400e-01  1.68714400e-01  8.00000000e-01  4.38000000e-02
  4.38000000e-02  4.17351100e+03  6.27457900e+02  1.42902100e+02  4.02343300e+01
  1.28202100e+01  4.39043700e+00  1.16263580e+01  2.71628000e+00  7.72218000e-01
  1.16263580e+01  2.71628000e+00  7.72218000e-01  2.12031300e-01  2.12031300e-01
  8.00000000e-01  6.39000000e-02  6.39000000e-02  3.04752490e+03  4.57369510e+02
  1.03948690e+02  2.92101550e+01  9.28666300e+00  3.16392700e+00  7.86827240e+00
  1.88128850e+00  5.44249300e-01  7.86827240e+00  1.88128850e+00  5.44249300e-01
  1.68714400e-01  1.68714400e-01  8.00000000e-01  4.38000000e-02  4.38000000e-02
  4.17351100e+03  6.27457900e+02  1.42902100e+02  4.02343300e+01  1.28202100e+01
  4.39043700e+00  1.16263580e+01  2.71628000e+00  7.72218000e-01  1.16263580e+01
  2.71628000e+00  7.72218000e-01  2.12031300e-01  2.12031300e-01  8.00000000e-01
  6.39000000e-02  6.39000000e-02  3.04752490e+03  4.57369510e+02  1.03948690e+02
  2.92101550e+01  9.28666300e+00  3.16392700e+00  7.86827240e+00  1.88128850e+00
  5.44249300e-01  7.86827240e+00  1.88128850e+00  5.44249300e-01  1.68714400e-01
  1.68714400e-01  8.00000000e-01  4.38000000e-02  4.38000000e-02  5.48467170e+03
  8.25234950e+02  1.88046960e+02  5.29645000e+01  1.68975700e+01  5.79963530e+00
  1.55396160e+01  3.59993360e+00  1.01376180e+00  1.55396160e+01  3.59993360e+00
  1.01376180e+00  2.70005800e-01  2.70005800e-01  8.00000000e-01  8.45000000e-02
  8.45000000e-02  5.48467170e+03  8.25234950e+02  1.88046960e+02  5.29645000e+01
  1.68975700e+01  5.79963530e+00  1.55396160e+01  3.59993360e+00  1.01376180e+00
  1.55396160e+01  3.59993360e+00  1.01376180e+00  2.70005800e-01  2.70005800e-01
  8.00000000e-01  8.45000000e-02  8.45000000e-02  1.87311370e+01  2.82539370e+00
  6.40121700e-01  1.61277800e-01  1.87311370e+01  2.82539370e+00  6.40121700e-01
  1.61277800e-01  3.04752490e+03  4.57369510e+02  1.03948690e+02  2.92101550e+01
  9.28666300e+00  3.16392700e+00  7.86827240e+00  1.88128850e+00  5.44249300e-01
  7.86827240e+00  1.88128850e+00  5.44249300e-01  1.68714400e-01  1.68714400e-01
  8.00000000e-01  4.38000000e-02  4.38000000e-02  3.04752490e+03  4.57369510e+02
  1.03948690e+02  2.92101550e+01  9.28666300e+00  3.16392700e+00  7.86827240e+00
  1.88128850e+00  5.44249300e-01  7.86827240e+00  1.88128850e+00  5.44249300e-01
  1.68714400e-01  1.68714400e-01  8.00000000e-01  4.38000000e-02  4.38000000e-02
  3.04752490e+03  4.57369510e+02  1.03948690e+02  2.92101550e+01  9.28666300e+00
  3.16392700e+00  7.86827240e+00  1.88128850e+00  5.44249300e-01  7.86827240e+00
  1.88128850e+00  5.44249300e-01  1.68714400e-01  1.68714400e-01  8.00000000e-01
  4.38000000e-02  4.38000000e-02  3.04752490e+03  4.57369510e+02  1.03948690e+02
  2.92101550e+01  9.28666300e+00  3.16392700e+00  7.86827240e+00  1.88128850e+00
  5.44249300e-01  7.86827240e+00  1.88128850e+00  5.44249300e-01  1.68714400e-01
  1.68714400e-01  8.00000000e-01  4.38000000e-02  4.38000000e-02  1.87311370e+01
  2.82539370e+00  6.40121700e-01  1.61277800e-01  1.87311370e+01  2.82539370e+00
  6.40121700e-01  1.61277800e-01  1.87311370e+01  2.82539370e+00  6.40121700e-01
  1.61277800e-01  1.87311370e+01  2.82539370e+00  6.40121700e-01  1.61277800e-01
  1.87311370e+01  2.82539370e+00  6.40121700e-01  1.61277800e-01  3.04752490e+03
  4.57369510e+02  1.03948690e+02  2.92101550e+01  9.28666300e+00  3.16392700e+00
  7.86827240e+00  1.88128850e+00  5.44249300e-01  7.86827240e+00  1.88128850e+00
  5.44249300e-01  1.68714400e-01  1.68714400e-01  8.00000000e-01  4.38000000e-02
  4.38000000e-02  1.87311370e+01  2.82539370e+00  6.40121700e-01  1.61277800e-01
  3.04752490e+03  4.57369510e+02  1.03948690e+02  2.92101550e+01  9.28666300e+00
  3.16392700e+00  7.86827240e+00  1.88128850e+00  5.44249300e-01  7.86827240e+00
  1.88128850e+00  5.44249300e-01  1.68714400e-01  1.68714400e-01  8.00000000e-01
  4.38000000e-02  4.38000000e-02  1.87311370e+01  2.82539370e+00  6.40121700e-01
  1.61277800e-01  1.87311370e+01  2.82539370e+00  6.40121700e-01  1.61277800e-01
  3.04752490e+03  4.57369510e+02  1.03948690e+02  2.92101550e+01  9.28666300e+00
  3.16392700e+00  7.86827240e+00  1.88128850e+00  5.44249300e-01  7.86827240e+00
  1.88128850e+00  5.44249300e-01  1.68714400e-01  1.68714400e-01  8.00000000e-01
  4.38000000e-02  4.38000000e-02  1.87311370e+01  2.82539370e+00  6.40121700e-01
  1.61277800e-01  1.87311370e+01  2.82539370e+00  6.40121700e-01  1.61277800e-01
  1.87311370e+01  2.82539370e+00  6.40121700e-01  1.61277800e-01  3.04752490e+03
  4.57369510e+02  1.03948690e+02  2.92101550e+01  9.28666300e+00  3.16392700e+00
  7.86827240e+00  1.88128850e+00  5.44249300e-01  7.86827240e+00  1.88128850e+00
  5.44249300e-01  1.68714400e-01  1.68714400e-01  8.00000000e-01  4.38000000e-02
  4.38000000e-02  1.87311370e+01  2.82539370e+00  6.40121700e-01  1.61277800e-01
  1.87311370e+01  2.82539370e+00  6.40121700e-01  1.61277800e-01  1.87311370e+01
  2.82539370e+00  6.40121700e-01  1.61277800e-01  1.87311370e+01  2.82539370e+00
  6.40121700e-01  1.61277800e-01  1.87311370e+01  2.82539370e+00  6.40121700e-01
  1.61277800e-01
Contraction coefficients                   R   N=         361
  1.83109981e-03  1.39500985e-02  6.84450927e-02  2.32714275e-01  4.70192950e-01
  3.58520862e-01 -1.10777504e-01 -1.48026305e-01  1.13076704e+00  7.08742995e-02
  3.39752798e-01  7.27158595e-01  1.00000000e+00  1.00000000e+00  1.00000000e+00
  1.00000000e+00  1.00000000e+00  1.83470016e-03  1.40373012e-02  6.88426061e-02
  2.32184421e-01  4.67941342e-01  3.62312032e-01 -1.19332409e-01 -1.60854212e-01
  1.14345648e+00  6.89990956e-02  3.16423980e-01  7.44308252e-01  1.00000000e+00
  1.00000000e+00  1.00000000e+00  1.00000000e+00  1.00000000e+00  1.83470016e-03
  1.40373012e-02  6.88426061e-02  2.32184421e-01  4.67941342e-01  3.62312032e-01
 -1.19332409e-01 -1.60854212e-01  1.14345648e+00  6.89990956e-02  3.16423980e-01
  7.44308252e-01  1.00000000e+00  1.00000000e+00  1.00000000e+00  1.00000000e+00
  1.00000000e+00  1.83479944e-03  1.39949958e-02  6.85869792e-02  2.32240930e-01
  4.69069858e-01  3.60454891e-01 -1.14961023e-01 -1.69118034e-01  1.14585223e+00
  6.75800232e-02  3.23907111e-01  7.40895255e-01  1.00000000e+00  1.00000000e+00
  1.00000000e+00  1.00000000e+00  1.00000000e+00  1.83470016e-03  1.40373012e-02
  6.88426061e-02  2.32184421e-01  4.67941342e-01  3.62312032e-01 -1.19332409e-01
 -1.60854212e-01  1.14345648e+00  6.89990956e-02  3.16423980e-01  7.44308252e-01
  1.00000000e+00  1.00000000e+00  1.00000000e+00  1.00000000e+00  1.00000000e+00
  1.83479944e-03  1.39949958e-02  6.85869792e-02  2.32240930e-01  4.69069858e-01
  3.60454891e-01 -1.14961023e-01 -1.69118034e-01  1.14585223e+00  6.75800232e-02
  3.23907111e-01  7.40895255e-01  1.00000000e+00  1.00000000e+00  1.00000000e+00
  1.00000000e+00  1.00000000e+00  1.83470016e-03  1.40373012e-02  6.88426061e-02
  2.32184421e-01  4.67941342e-01  3.62312032e-01 -1.19332409e-01 -1.60854212e-01
  1.14345648e+00  6.89990956e-02  3.16423980e-01  7.44308252e-01  1.00000000e+00
  1.00000000e+00  1.00000000e+00  1.00000000e+00  1.00000000e+00  1.83109981e-03
  1.39500985e-02  6.84450927e-02  2.32714275e-01  4.70192950e-01  3.58520862e-01
 -1.10777504e-01 -1.48026305e-01  1.13076704e+00  7.08742995e-02  3.39752798e-01
  7.27158595e-01  1.00000000e+00  1.00000000e+00  1.00000000e+00  1.00000000e+00
  1.00000000e+00  1.83109981e-03  1.39500985e-02  6.84450927e-02  2.32714275e-01
  4.70192950e-01  3.58520862e-01 -1.10777504e-01 -1.48026305e-01  1.13076704e+00
  7.08742995e-02  3.39752798e-01  7.27158595e-01  1.00000000e+00  1.00000000e+00
  1.00000000e+00  1.00000000e+00  1.00000000e+00  3.34945995e-02  2.34726947e-01
  8.13757318e-01  1.00000000e+00  3.34945995e-02  2.34726947e-01  8.13757318e-01
  1.00000000e+00  1.83470016e-03  1.40373012e-02  6.88426061e-02  2.32184421e-01
  4.67941342e-01  3.62312032e-01 -1.19332409e-01 -1.60854212e-01  1.14345648e+00
  6.89990956e-02  3.16423980e-01  7.44308252e-01  1.00000000e+00  1.00000000e+00
  1.00000000e+00  1.00000000e+00  1.00000000e+00  1.83470016e-03  1.40373012e-02
  6.88426061e-02  2.32184421e-01  4.67941342e-01  3.62312032e-01 -1.19332409e-01
 -1.60854212e-01  1.14345648e+00  6.89990956e-02  3.16423980e-01  7.44308252e-01
  1.00000000e+00  1.00000000e+00  1.00000000e+00  1.00000000e+00  1.00000000e+00
  1.83470016e-03  1.40373012e-02  6.88426061e-02  2.32184421e-01  4.67941342e-01
  3.62312032e-01 -1.19332409e-01 -1.60854212e-01  1.14345648e+00  6.89990956e-02
  3.16423980e-01  7.44308252e-01  1.00000000e+00  1.00000000e+00  1.00000000e+00
  1.00000000e+00  1.00000000e+00  1.83470016e-03  1.40373012e-02  6.88426061e-02
  2.32184421e-01  4.67941342e-01  3.62312032e-01 -1.19332409e-01 -1.60854212e-01
  1.14345648e+00  6.89990956e-02  3.16423980e-01  7.44308252e-01  1.00000000e+00
  1.00000000e+00  1.00000000e+00  1.00000000e+00  1.00000000e+00  3.34945995e-02
  2.34726947e-01  8.13757318e-01  1.00000000e+00  3.34945995e-02  2.34726947e-01
  8.13757318e-01  1.00000000e+00  3.34945995e-02  2.34726947e-01  8.13757318e-01
  1.00000000e+00  3.34945995e-02  2.34726947e-01  8.13757318e-01  1.00000000e+00
  3.34945995e-02  2.34726947e-01  8.13757318e-01  1.00000000e+00  1.83470016e-03
  1.40373012e-02  6.88426061e-02  2.32184421e-01  4.67941342e-01  3.62312032e-01
 -1.19332409e-01 -1.60854212e-01  1.14345648e+00  6.89990956e-02  3.16423980e-01
  7.44308252e-01  1.00000000e+00  1.00000000e+00  1.00000000e+00  1.00000000e+00
  1.00000000e+00  3.34945995e-02  2.34726947e-01  8.13757318e-01  1.00000000e+00
  1.83470016e-03  1.40373012e-02  6.88426061e-02  2.32184421e-01  4.67941342e-01
  3.62312032e-01 -1.19332409e-01 -1.60854212e-01  1.14345648e+00  6.89990956e-02
  3.16423980e-01  7.44308252e-01  1.00000000e+00  1.00000000e+00  1.00000000e+00
  1.00000000e+00  1.00000000e+00  3.34945995e-02  2.34726947e-01  8.13757318e-01
  1.00000000e+00  3.34945995e-02  2.34726947e-01  8.13757318e-01  1.00000000e+00
  1.83470016e-03  1.40373012e-02  6.88426061e-02  2.32184421e-01  4.67941342e-01
  3.62312032e-01 -1.19332409e-01 -1.60854212e-01  1.14345648e+00  6.89990956e-02
  3.16423980e-01  7.44308252e-01  1.00000000e+00  1.00000000e+00  1.00000000e+00
  1.00000000e+00  1.00000000e+00  3.34945995e-02  2.34726947e-01  8.13757318e-01
  1.00000000e+00  3.34945995e-02  2.34726947e-01  8.13757318e-01  1.00000000e+00
  3.34945995e-02  2.34726947e-01  8.13757318e-01  1.00000000e+00  1.83470016e-03
  1.40373012e-02  6.88426061e-02  2.32184421e-01  4.67941342e-01  3.62312032e-01
 -1.19332409e-01 -1.60854212e-01  1.14345648e+00  6.89990956e-02  3.16423980e-01
  7.44308252e-01  1.00000000e+00  1.00000000e+00  1.00000000e+00  1.00000000e+00
  1.00000000e+00  3.34945995e-02  2.34726947e-01  8.13757318e-01  1.00000000e+00
  3.34945995e-02  2.34726947e-01  8.13757318e-01  1.00000000e+00  3.34945995e-02
  2.34726947e-01  8.13757318e-01  1.00000000e+00  3.34945995e-02  2.34726947e-01
  8.13757318e-01  1.00000000e+00  3.34945995e-02  2.34726947e-01  8.13757318e-01
  1.00000000e+00
Coordinates of each shell                  R   N=         516
  3.09633635e+00  1.03027916e+00  2.83691683e+00  3.09633635e+00  1.03027916e+00
  2.83691683e+00  3.09633635e+00  1.03027916e+00  2.83691683e+00  3.09633635e+00
  1.03027916e+00  2.83691683e+00  3.09633635e+00  1.03027916e+00  2.83691683e+00
  3.09633635e+00  1.03027916e+00  2.83691683e+00  3.09633635e+00  1.03027916e+00
  2.83691683e+00  3.09633635e+00  1.03027916e+00  2.83691683e+00 -4.78392421e-01
  2.92744789e-01  8.45521087e-02 -4.78392421e-01  2.92744789e-01  8.45521087e-02
 -4.78392421e-01  2.92744789e-01  8.45521087e-02 -4.78392421e-01  2.92744789e-01
  8.45521087e-02 -4.78392421e-01  2.92744789e-01  8.45521087e-02 -4.78392421e-01
  2.92744789e-01  8.45521087e-02 -4.78392421e-01  2.92744789e-01  8.45521087e-02
 -4.78392421e-01  2.92744789e-01  8.45521087e-02  2.28784876e+00  8.95019558e-01
  6.82841219e-01  2.28784876e+00  8.95019558e-01  6.82841219e-01  2.28784876e+00
  8.95019558e-01  6.82841219e-01  2.28784876e+00  8.95019558e-01  6.82841219e-01
  2.28784876e+00  8.95019558e-01  6.82841219e-01  2.28784876e+00  8.95019558e-01
  6.82841219e-01  2.28784876e+00  8.95019558e-01  6.82841219e-01  2.28784876e+00
  8.95019558e-01  6.82841219e-01  3.91620267e+00  1.29333066e+00 -1.33954840e+00
  3.91620267e+00  1.29333066e+00 -1.33954840e+00  3.91620267e+00  1.29333066e+00
 -1.33954840e+00  3.91620267e+00  1.29333066e+00 -1.33954840e+00  3.91620267e+00
  1.29333066e+00 -1.33954840e+00  3.91620267e+00  1.29333066e+00 -1.33954840e+00
  3.91620267e+00  1.29333066e+00 -1.33954840e+00  3.91620267e+00  1.29333066e+00
 -1.33954840e+00  3.31148579e+00  1.43703334e+00 -3.88950652e+00  3.31148579e+00
  1.43703334e+00 -3.88950652e+00  3.31148579e+00  1.43703334e+00 -3.88950652e+00
  3.31148579e+00  1.43703334e+00 -3.88950652e+00  3.31148579e+00  1.43703334e+00
 -3.88950652e+00  3.31148579e+00  1.43703334e+00 -3.88950652e+00  3.31148579e+00
  1.43703334e+00 -3.88950652e+00  3.31148579e+00  1.43703334e+00 -3.88950652e+00
  7.82520097e-01  1.00974970e+00 -4.42848421e+00  7.82520097e-01  1.00974970e+00
 -4.42848421e+00  7.82520097e-01  1.00974970e+00 -4.42848421e+00  7.82520097e-01
  1.00974970e+00 -4.42848421e+00  7.82520097e-01  1.00974970e+00 -4.42848421e+00
  7.82520097e-01  1.00974970e+00 -4.42848421e+00  7.82520097e-01  1.00974970e+00
 -4.42848421e+00  7.82520097e-01  1.00974970e+00 -4.42848421e+00 -1.14776928e+00
  4.66313323e-01 -2.73655973e+00 -1.14776928e+00  4.66313323e-01 -2.73655973e+00
 -1.14776928e+00  4.66313323e-01 -2.73655973e+00 -1.14776928e+00  4.66313323e-01
 -2.73655973e+00 -1.14776928e+00  4.66313323e-01 -2.73655973e+00 -1.14776928e+00
  4.66313323e-01 -2.73655973e+00 -1.14776928e+00  4.66313323e-01 -2.73655973e+00
 -1.14776928e+00  4.66313323e-01 -2.73655973e+00  4.87304073e+00  1.89992491e+00
 -5.51283533e+00  4.87304073e+00  1.89992491e+00 -5.51283533e+00  4.87304073e+00
  1.89992491e+00 -5.51283533e+00  4.87304073e+00  1.89992491e+00 -5.51283533e+00
  4.87304073e+00  1.89992491e+00 -5.51283533e+00  4.87304073e+00  1.89992491e+00
 -5.51283533e+00  4.87304073e+00  1.89992491e+00 -5.51283533e+00  4.87304073e+00
  1.89992491e+00 -5.51283533e+00 -3.28880335e+00  1.24855508e-01 -3.51079853e+00
 -3.28880335e+00  1.24855508e-01 -3.51079853e+00 -3.28880335e+00  1.24855508e-01
 -3.51079853e+00 -3.28880335e+00  1.24855508e-01 -3.51079853e+00 -3.28880335e+00
  1.24855508e-01 -3.51079853e+00 -3.28880335e+00  1.24855508e-01 -3.51079853e+00
 -3.28880335e+00  1.24855508e-01 -3.51079853e+00 -3.28880335e+00  1.24855508e-01
 -3.51079853e+00  2.96594385e-01  1.13435624e+00 -6.28150797e+00  2.96594385e-01
  1.13435624e+00 -6.28150797e+00  5.74707570e+00  1.67482969e+00 -9.05011887e-01
  5.74707570e+00  1.67482969e+00 -9.05011887e-01 -1.12795542e+00 -2.51723860e+00
  9.22014558e-01 -1.12795542e+00 -2.51723860e+00  9.22014558e-01 -1.12795542e+00
 -2.51723860e+00  9.22014558e-01 -1.12795542e+00 -2.51723860e+00  9.22014558e-01
 -1.12795542e+00 -2.51723860e+00  9.22014558e-01 -1.12795542e+00 -2.51723860e+00
  9.22014558e-01 -1.12795542e+00 -2.51723860e+00  9.22014558e-01 -1.12795542e+00
 -2.51723860e+00  9.22014558e-01  6.11061232e-01 -4.43012441e+00 -4.17241195e-01
  6.11061232e-01 -4.43012441e+00 -4.17241195e-01  6.11061232e-01 -4.43012441e+00
 -4.17241195e-01  6.11061232e-01 -4.43012441e+00 -4.17241195e-01  6.11061232e-01
 -4.43012441e+00 -4.17241195e-01  6.11061232e-01 -4.43012441e+00 -4.17241195e-01
  6.11061232e-01 -4.43012441e+00 -4.17241195e-01  6.11061232e-01 -4.43012441e+00
 -4.17241195e-01 -2.17420783e+00  2.27334586e+00  1.48682381e+00 -2.17420783e+00
  2.27334586e+00  1.48682381e+00 -2.17420783e+00  2.27334586e+00  1.48682381e+00
 -2.17420783e+00  2.27334586e+00  1.48682381e+00 -2.17420783e+00  2.27334586e+00
  1.48682381e+00 -2.17420783e+00  2.27334586e+00  1.48682381e+00 -2.17420783e+00
  2.27334586e+00  1.48682381e+00 -2.17420783e+00  2.27334586e+00  1.48682381e+00
 -1.77401681e+00  4.95914943e+00  6.24675787e-01 -1.77401681e+00  4.95914943e+00
  6.24675787e-01 -1.77401681e+00  4.95914943e+00  6.24675787e-01 -1.77401681e+00
  4.95914943e+00  6.24675787e-01 -1.77401681e+00  4.95914943e+00  6.24675787e-01
 -1.77401681e+00  4.95914943e+00  6.24675787e-01 -1.77401681e+00  4.95914943e+00
  6.24675787e-01 -1.77401681e+00  4.95914943e+00  6.24675787e-01 -1.73559205e+00
  2.14298984e+00  3.50172959e+00 -1.73559205e+00  2.14298984e+00  3.50172959e+00
 -4.14480711e+00  1.71335065e+00  1.20314225e+00 -4.14480711e+00  1.71335065e+00
  1.20314225e+00  2.54924303e+00 -4.33936169e+00  3.15704151e-01  2.54924303e+00
 -4.33936169e+00  3.15704151e-01  6.80578057e-01 -4.12903042e+00 -2.46535522e+00
  6.80578057e-01 -4.12903042e+00 -2.46535522e+00 -7.18257246e-02 -6.35852740e+00
 -1.24587885e-01 -7.18257246e-02 -6.35852740e+00 -1.24587885e-01 -1.17773748e+00
 -2.93971035e+00  3.80706113e+00 -1.17773748e+00 -2.93971035e+00  3.80706113e+00
 -1.17773748e+00 -2.93971035e+00  3.80706113e+00 -1.17773748e+00 -2.93971035e+00
  3.80706113e+00 -1.17773748e+00 -2.93971035e+00  3.80706113e+00 -1.17773748e+00
 -2.93971035e+00  3.80706113e+00 -1.17773748e+00 -2.93971035e+00  3.80706113e+00
 -1.17773748e+00 -2.93971035e+00  3.80706113e+00 -3.05595982e+00 -2.79931028e+00
  2.10704993e-01 -3.05595982e+00 -2.79931028e+00  2.10704993e-01 -2.15895694e+00
 -5.56475494e+00  4.58722073e+00 -2.15895694e+00 -5.56475494e+00  4.58722073e+00
 -2.15895694e+00 -5.56475494e+00  4.58722073e+00 -2.15895694e+00 -5.56475494e+00
  4.58722073e+00 -2.15895694e+00 -5.56475494e+00  4.58722073e+00 -2.15895694e+00
 -5.56475494e+00  4.58722073e+00 -2.15895694e+00 -5.56475494e+00  4.58722073e+00
 -2.15895694e+00 -5.56475494e+00  4.58722073e+00 -2.41270618e+00 -1.52956458e+00