Generated by Psi4
     FORCE                           RHF                       TESTBAS
Number of atoms                            I                7
Charge                                     I                0
Multiplicity                               I                1
Number of electrons                        I               50
Number of alpha electrons                  I               25
Number of beta electrons                   I               25
Number of basis functions                  I              103
Number of independent functions            I              103
Atomic numbers                             I   N=           7
          16           8           1           8           1           8
           8
Nuclear charges                            R   N=           7
  1.60000000e+01  8.00000000e+00  1.00000000e+00  8.00000000e+00  1.00000000e+00
  8.00000000e+00  8.00000000e+00
Current cartesian coordinates              R   N=          21
 -1.16571589e-01 -1.42848676e-01  2.01550510e-01 -1.42781053e+00  1.22383854e+00
 -2.22822978e+00 -1.26594732e+00  1.11251800e-01 -3.69351311e+00  2.85770163e+00
  5.26738359e-01 -2.41829288e-01  3.18133565e+00  2.23373950e+00  3.84686339e-01
 -1.01618275e+00  1.24167905e+00  2.38233986e+00 -3.01381469e-01 -2.85447296e+00
 -1.06671871e-01
Integer atomic weights                     I   N=           7
          31          15           1          15           1          15
          15
Real atomic weights                        R   N=           7
  3.19720712e+01  1.59949146e+01  1.00782503e+00  1.59949146e+01  1.00782503e+00
  1.59949146e+01  1.59949146e+01
Number of primitive shells                 I              105
Number of contracted shells                I               46
Pure/Cartesian d shells                    I                1
Pure/Cartesian f shells                    I                1
Highest angular momentum                   I                2
Largest degree of contraction              I                6
Shell types                                I   N=          46
           0           0           1           0           1           0
           1           2           0           1           0           0
           1           0           1           2           0           1
           0           0           0           0           1           0
           1           2           0           1           0           0
           0           0           1           0           1           2
           0           1           0           0           1           0
           1           2           0           1
Number of primitives per shell             I   N=          46
           6           6           6           3           3           1
           1           1           1           1           6           3
           3           1           1           1           1           1
           3           1           6           3           3           1
           1           1           1           1           3           1
           6           3           3           1           1           1
           1           1           6           3           3           1
           1           1           1           1
Shell to atom map                          I   N=          46
           1           1           1           1           1           1
           1           1           1           1           2           2
           2           2           2           2           2           2
           3           3           4           4           4           4
           4           4           4           4           5           5
           6           6           6           6           6           6
           6           6           7           7           7           7
           7           7           7           7
Primitive exponents                        R   N=         105
  2.19171000e+04  3.30149000e+03  7.54146000e+02  2.12711000e+02  6.79896000e+01
  2.30515000e+01  4.23735000e+02  1.00710000e+02  3.21599000e+01  1.18079000e+01
  4.63110000e+00  1.87025000e+00  4.23735000e+02  1.00710000e+02  3.21599000e+01
  1.18079000e+01  4.63110000e+00  1.87025000e+00  2.61584000e+00  9.22167000e-01
  3.41287000e-01  2.61584000e+00  9.22167000e-01  3.41287000e-01  1.17167000e-01
  1.17167000e-01  6.50000000e-01  4.05000000e-02  4.05000000e-02  5.48467170e+03
  8.25234950e+02  1.88046960e+02  5.29645000e+01  1.68975700e+01  5.79963530e+00
  1.55396160e+01  3.59993360e+00  1.01376180e+00  1.55396160e+01  3.59993360e+00
  1.01376180e+00  2.70005800e-01  2.70005800e-01  8.00000000e-01  8.45000000e-02
  8.45000000e-02  1.87311370e+01  2.82539370e+00  6.40121700e-01  1.61277800e-01
  5.48467170e+03  8.25234950e+02  1.88046960e+02  5.29645000e+01  1.68975700e+01
  5.79963530e+00  1.55396160e+01  3.59993360e+00  1.01376180e+00  1.55396160e+01
  3.59993360e+00  1.01376180e+00  2.70005800e-01  2.70005800e-01  8.00000000e-01
  8.45000000e-02  8.45000000e-02  1.87311370e+01  2.82539370e+00  6.40121700e-01
  1.61277800e-01  5.48467170e+03  8.25234950e+02  1.88046960e+02  5.29645000e+01
  1.68975700e+01  5.79963530e+00  1.55396160e+01  3.59993360e+00  1.01376180e+00
  1.55396160e+01  3.59993360e+00  1.01376180e+00  2.70005800e-01  2.70005800e-01
  8.00000000e-01  8.45000000e-02  8.45000000e-02  5.48467170e+03  8.25234950e+02
  1.88046960e+02  5.29645000e+01  1.68975700e+01  5.79963530e+00  1.55396160e+01
  3.59993360e+00  1.01376180e+00  1.55396160e+01  3.59993360e+00  1.01376180e+00
  2.70005800e-01  2.70005800e-01  8.00000000e-01  8.45000000e-02  8.45000000e-02
Contraction coefficients                   R   N=         105
  1.86900121e-03  1.42300092e-02  6.96960451e-02  2.38487154e-01  4.83307312e-01
  3.38074219e-01 -2.37670050e-03 -3.16930066e-02 -1.13317024e-01  5.60900117e-02
  5.92255123e-01  4.55006095e-01  4.06100032e-03  3.06810024e-02  1.30452010e-01
  3.27205026e-01  4.52851036e-01  2.56042020e-01 -2.50373114e-01  6.69567631e-02
  1.05450627e+00 -1.45109929e-02  3.10262847e-01  7.54482628e-01  1.00000000e+00
  1.00000000e+00  1.00000000e+00  1.00000000e+00  1.00000000e+00  1.83109981e-03
  1.39500985e-02  6.84450927e-02  2.32714275e-01  4.70192950e-01  3.58520862e-01
 -1.10777504e-01 -1.48026305e-01  1.13076704e+00  7.08742995e-02  3.39752798e-01
  7.27158595e-01  1.00000000e+00  1.00000000e+00  1.00000000e+00  1.00000000e+00
  1.00000000e+00  3.34945995e-02  2.34726947e-01  8.13757318e-01  1.00000000e+00
  1.83109981e-03  1.39500985e-02  6.84450927e-02  2.32714275e-01  4.70192950e-01
  3.58520862e-01 -1.10777504e-01 -1.48026305e-01  1.13076704e+00  7.08742995e-02
  3.39752798e-01  7.27158595e-01  1.00000000e+00  1.00000000e+00  1.00000000e+00
  1.00000000e+00  1.00000000e+00  3.34945995e-02  2.34726947e-01  8.13757318e-01
  1.00000000e+00  1.83109981e-03  1.39500985e-02  6.84450927e-02  2.32714275e-01
  4.70192950e-01  3.58520862e-01 -1.10777504e-01 -1.48026305e-01  1.13076704e+00
  7.08742995e-02  3.39752798e-01  7.27158595e-01  1.00000000e+00  1.00000000e+00
  1.00000000e+00  1.00000000e+00  1.00000000e+00  1.83109981e-03  1.39500985e-02
  6.84450927e-02  2.32714275e-01  4.70192950e-01  3.58520862e-01 -1.10777504e-01
 -1.48026305e-01  1.13076704e+00  7.08742995e-02  3.39752798e-01  7.27158595e-01
  1.00000000e+00  1.00000000e+00  1.00000000e+00  1.00000000e+00  1.00000000e+00
Coordinates of each shell                  R   N=         138
 -1.16571589e-01 -1.42848676e-01  2.01550510e-01 -1.16571589e-01 -1.42848676e-01
  2.01550510e-01 -1.16571589e-01 -1.42848676e-01  2.01550510e-01 -1.16571589e-01
 -1.42848676e-01  2.01550510e-01 -1.16571589e-01 -1.42848676e-01  2.01550510e-01
 -1.16571589e-01 -1.42848676e-01  2.01550510e-01 -1.16571589e-01 -1.42848676e-01
  2.01550510e-01 -1.16571589e-01 -1.42848676e-01  2.01550510e-01 -1.16571589e-01
 -1.42848676e-01  2.01550510e-01 -1.16571589e-01 -1.42848676e-01  2.01550510e-01
 -1.42781053e+00  1.22383854e+00 -2.22822978e+00 -1.42781053e+00  1.22383854e+00
 -2.22822978e+00 -1.42781053e+00  1.22383854e+00 -2.22822978e+00 -1.42781053e+00
  1.22383854e+00 -2.22822978e+00 -1.42781053e+00  1.22383854e+00 -2.22822978e+00
 -1.42781053e+00  1.22383854e+00 -2.22822978e+00 -1.42781053e+00  1.22383854e+00
 -2.22822978e+00 -1.42781053e+00  1.22383854e+00 -2.22822978e+00 -1.26594732e+00
  1.11251800e-01 -3.69351311e+00 -1.26594732e+00  1.11251800e-01 -3.69351311e+00
  2.85770163e+00  5.26738359e-01 -2.41829288e-01  2.85770163e+00  5.26738359e-01
 -2.41829288e-01  2.85770163e+00  5.26738359e-01 -2.41829288e-01  2.85770163e+00
  5.26738359e-01 -2.41829288e-01  2.85770163e+00  5.26738359e-01 -2.41829288e-01
  2.85770163e+00  5.26738359e-01 -2.41829288e-01  2.85770163e+00  5.26738359e-01
 -2.41829288e-01  2.85770163e+00  5.26738359e-01 -2.41829288e-01  3.18133565e+00
  2.23373950e+00  3.84686339e-01  3.18133565e+00  2.23373950e+00  3.84686339e-01
 -1.01618275e+00  1.24167905e+00  2.38233986e+00 -1.01618275e+00  1.24167905e+00
  2.38233986e+00 -1.01618275e+00  1.24167905e+00  2.38233986e+00 -1.01618275e+00
  1.24167905e+00  2.38233986e+00 -1.01618275e+00  1.24167905e+00  2.38233986e+00
 -1.01618275e+00  1.24167905e+00  2.38233986e+00 -1.01618275e+00  1.24167905e+00
  2.38233986e+00 -1.01618275e+00  1.24167905e+00  2.38233986e+00 -3.01381469e-01
 -2.85447296e+00 -1.06671871e-01 -3.01381469e-01 -2.85447296e+00 -1.06671871e-01
 -3.01381469e-01 -2.85447296e+00 -1.06671871e-01 -3.01381469e-01 -2.85447296e+00
 -1.06671871e-01 -3.01381469e-01 -2.85447296e+00 -1.06671871e-01 -3.01381469e-01
 -2.85447296e+00 -1.06671871e-01 -3.01381469e-01 -2.85447296e+00 -1.06671871e-01
 -3.01381469e-01 -2.85447296e+00 -1.06671871e-01
Total Energy                               R     -7.002218548901141e+02
Alpha Orbital Energies                     R   N=         103
 -8.92029734e+01 -1.92496816e+01 -1.92496599e+01 -1.92005104e+01 -1.92004983e+01
 -8.22081394e+00 -6.18655489e+00 -6.18576408e+00 -6.18417998e+00 -1.21309359e+00
 -1.09462995e+00 -1.07679887e+00 -1.06498053e+00 -7.16388061e-01 -6.41001158e-01
 -5.53458182e-01 -5.31366445e-01 -5.02160043e-01 -4.65973996e-01 -4.30798910e-01
 -4.03090116e-01 -3.98297149e-01 -3.62257350e-01 -3.61042551e-01 -3.49447667e-01
 -4.20959610e-02  3.85115078e-03  2.86887488e-02  3.78745126e-02  3.85618958e-02
  5.58126555e-02  8.20653377e-02  8.57163560e-02  1.21594255e-01  1.38818751e-01
  1.48164883e-01  1.64824198e-01  1.67601890e-01  1.83632628e-01  2.02041804e-01
  2.10101134e-01  2.30109791e-01  2.41727927e-01  2.49485886e-01  2.56448645e-01
  2.78886604e-01  2.82471226e-01  2.87203829e-01  3.09318554e-01  3.33077094e-01
  3.81250931e-01  4.90086909e-01  5.47345348e-01  5.80922217e-01  5.83008732e-01
  6.11722231e-01  7.10549025e-01  9.13800395e-01  9.58075275e-01  9.98483064e-01
  1.04344459e+00  1.05324232e+00  1.09388001e+00  1.09664081e+00  1.14032312e+00
  1.16486190e+00  1.19196882e+00  1.19358013e+00  1.21424758e+00  1.22863356e+00
  1.25912409e+00  1.28486111e+00  1.29536558e+00  1.32928058e+00  1.47144555e+00
  1.47705920e+00  1.50047974e+00  1.65965899e+00  1.68373584e+00  1.69588939e+00
  1.71592837e+00  1.72533331e+00  1.74538807e+00  1.76465129e+00  1.76913179e+00
  1.77722280e+00  1.81100179e+00  1.99819135e+00  2.06005542e+00  2.12309429e+00
  2.15192497e+00  2.22326665e+00  2.29801705e+00  2.40190070e+00  2.51904396e+00
  2.59210871e+00  2.84133741e+00  2.86032663e+00  3.89399067e+00  3.90288905e+00
  4.01026287e+00  4.01666207e+00  4.09712118e+00
Alpha MO coefficients                      R   N=       10609
  9.96117255e-01  1.47766075e-02  1.55086040e-05  1.89756736e-05 -2.67791396e-05
 -2.46555312e-02 -5.16096348e-05 -6.31444061e-05  8.90984487e-05  5.50404144e-03
 -4.27396514e-05 -5.23402166e-05  7.37490032e-05  8.52427130e-03  8.66994347e-03
  8.58742978e-03 -2.21434540e-05 -3.93154457e-05  7.74726424e-05  4.32963956e-04
 -1.60970370e-06 -1.93536712e-06  2.72616921e-06 -2.14242680e-06  3.25961869e-05
  7.45543665e-06 -7.47385888e-06  1.67110179e-05  2.68199590e-04  3.82869476e-05
 -4.97645412e-05  6.83141019e-06 -4.20352578e-05 -3.08632725e-05 -1.05960935e-04
  3.80449037e-05 -7.78963219e-05  1.06015461e-04 -7.46031283e-04 -9.43203108e-05
  1.51598221e-04 -1.68585654e-04 -9.08626324e-05  7.51901736e-05 -2.14293293e-06
  3.25985300e-05 -1.86097708e-05 -6.17850848e-06  2.54878366e-06  2.68186909e-04
 -5.08633357e-05  3.43874951e-05  1.48816167e-05 -1.89532194e-04  1.95637413e-05
 -8.87544462e-06 -4.24554490e-05  3.67959977e-05  2.52076161e-05 -7.46024191e-04
  2.33847951e-04  1.92362355e-05 -7.24626127e-05 -9.08674736e-05  7.52115884e-05
  2.47941534e-05  6.99616170e-05 -2.90759952e-05  4.43623479e-05  7.38756369e-05
 -2.54984848e-05 -2.83209213e-05  5.45205421e-05  6.42523812e-05  5.22574499e-05
  3.84211540e-06 -1.26454686e-04  6.29641573e-05  1.03457785e-04 -1.55484750e-04
 -9.08064684e-04 -6.59520271e-05  1.66064732e-04  1.85882084e-04  2.47962389e-05
  6.99712659e-05 -8.28339856e-06 -9.00797889e-05 -9.36518715e-06 -2.55496224e-05
  1.83811290e-06 -8.69453537e-05 -1.85192041e-05  8.82152220e-05 -2.42009221e-04
  8.34559769e-05 -2.76223098e-05 -2.56630250e-06 -4.10817204e-05 -9.08157402e-04
 -1.14239069e-06 -2.48154410e-04 -7.01086774e-05 -9.88552540e-07  1.92225744e-05
  6.82558695e-05  1.42698918e-05 -6.72830357e-06  2.10416984e-04 -1.18928817e-04
 -2.15079735e-05  2.19782719e-05  1.09876201e-03 -1.04121190e-04 -7.20542302e-04
 -3.08937066e-04 -4.45636660e-04 -3.69052797e-05 -2.44018787e-05 -1.40926707e-04
  6.40932801e-05  2.50763114e-05 -1.76452779e-03 -8.62806934e-04 -1.23406089e-05
  3.07828331e-04  6.59779256e-02  1.72867430e-03  1.54973258e-05 -7.66471958e-05
 -4.06055706e-05  6.25704267e-04 -4.89768823e-05  1.73575688e-04  9.63349337e-05
 -4.94977043e-04 -5.81249404e-04 -5.69076355e-04  1.81424273e-05  2.54207193e-05
  2.33327944e-06 -4.00453261e-04 -1.99543603e-04  1.32469954e-04 -2.16694616e-04
  5.71362881e-05  1.33137997e-04 -9.90419287e-01 -2.54624164e-02  7.00927340e-04
 -7.69583939e-04 -4.59399840e-04 -1.40813186e-02 -2.88881089e-04  6.10188777e-04
  3.24775833e-04  8.55479802e-03  8.50786016e-03  8.43644688e-03  2.90335363e-05
 -2.73059958e-05  2.65421127e-05  5.27183378e-03 -6.99882334e-04 -7.73102295e-04
 -2.14049047e-04 -3.94294925e-04  6.14483986e-04  3.19452830e-05 -4.12530657e-05
 -5.98039501e-06  4.03214152e-06  2.28827787e-05  9.40368427e-05 -3.83194407e-05
  5.41543561e-05 -1.20479660e-05  7.61047679e-06 -4.39269900e-05 -4.03271204e-05
  1.06047525e-05 -1.97219315e-05 -9.41048917e-06  9.22739253e-05  2.20906811e-06
  4.69013739e-05  3.97319320e-05  2.52601021e-05  1.59698234e-05 -2.09130935e-05
 -2.98265010e-05 -4.58041627e-06 -3.89724776e-04  1.92924216e-06 -1.03905614e-04
  2.31727272e-05  4.56705023e-05  6.43883208e-06 -2.51374346e-05  4.45511054e-05
 -5.26542875e-06  9.55048346e-06 -9.19591607e-04 -2.59576559e-04 -6.35187420e-04
 -5.88487403e-05 -1.13024098e-06  2.19686257e-05 -2.39158948e-05  3.13771706e-05
 -5.59956898e-05  2.40447266e-04  3.66989800e-05 -6.37732124e-05  9.72369633e-05
  1.25537344e-03 -7.55807028e-05  4.26606871e-04  5.57909465e-04 -1.55944928e-04
 -9.03593842e-05 -3.33082430e-04  6.60646793e-05 -1.77187445e-04  1.92693218e-04
 -2.01636990e-03  2.36395201e-04 -6.24200513e-04  6.26538399e-04 -9.90418100e-01
 -2.54580506e-02 -5.01912304e-04  1.01501342e-03  1.06980543e-04 -1.41232600e-02
  2.47086332e-04 -6.38720327e-04 -2.49401481e-04  8.46145627e-03  8.49489669e-03
  8.54997619e-03 -4.65815897e-05  4.07456299e-05 -1.07318965e-05  5.26544961e-03
  2.09655584e-04  2.22539989e-04  9.98743924e-04 -3.90166268e-04  6.37812404e-04
 -6.59603548e-02 -1.66300754e-03  7.51397936e-05 -2.93406789e-05 -1.52887383e-05
 -1.25288468e-03  9.67769264e-06 -9.47784577e-05 -5.19058369e-05  6.05920446e-04
  5.56367113e-04  5.89737087e-04 -3.59618768e-06  4.95801670e-05 -1.19847242e-05
  3.01435335e-04  2.31612322e-04 -8.53594130e-05 -2.42016334e-05  4.88369574e-06
  2.16604831e-04  2.97491075e-05  1.05317716e-05  2.08127474e-06  8.31479652e-06
  3.91728884e-05 -3.80517689e-04 -6.79359541e-05  3.76296792e-05  7.98580850e-05
 -1.96536892e-05 -1.72407434e-05  5.39268016e-05 -9.18870108e-06  3.03532405e-05
 -1.16945177e-05 -9.15477857e-04 -8.20954259e-05  2.25522220e-04  6.59688359e-04
  3.56331087e-05 -3.94901800e-05 -1.17050717e-05 -2.63353068e-05  2.09497781e-06
  4.26738997e-05  5.69124768e-05 -4.65159047e-05 -1.57962167e-05 -3.01854792e-05
 -2.85021161e-05 -1.49490238e-05 -7.41057587e-06  1.35583850e-05 -3.22913102e-05
 -3.00471266e-05 -4.02943341e-05 -1.36506188e-04 -4.20941162e-05  5.90282172e-06
 -7.55285711e-05 -7.18574596e-06  8.65930599e-06  9.93972930e-06  2.67531420e-04
  4.41360830e-05 -4.37789001e-04 -1.62684993e-04  3.86686424e-04 -1.66050930e-04
 -3.85259885e-04 -2.41816354e-05 -1.68612259e-04  2.42274716e-04 -2.43534434e-04
  6.12104835e-05  4.62716060e-05 -4.07345028e-07  1.78738449e-03  6.62600071e-05
 -1.34814484e-03 -4.90308713e-04  3.85320761e-05  2.08562956e-05  6.66906548e-06
 -1.24675642e-05  1.02282973e-05 -7.90167376e-06  2.02340028e-06  1.42236682e-05
  2.44844072e-05  3.32234462e-05 -3.47461689e-05  3.57523478e-05  1.76227632e-05
  7.91446822e-06  1.08771291e-05 -3.48333851e-04 -1.79413230e-05  1.46242111e-04
  2.49367002e-04  1.76291735e-05  2.91733168e-04  1.17937279e-05  1.24123422e-05
 -1.44487188e-05 -2.20536370e-06  5.25857472e-06  6.02734244e-05  1.89492257e-05
 -1.68054772e-05 -2.24964415e-05  3.00551464e-06 -4.03573839e-05  1.52777740e-05
 -5.83697172e-05 -8.31807530e-06  5.76270749e-06  1.89807828e-04 -3.04063253e-04
 -2.05534132e-05  6.16199244e-05 -8.19172117e-06  2.20685709e-05 -1.95338255e-01
 -5.01255366e-03 -7.65247440e-05  1.11795721e-04  1.75600705e-04 -2.63244563e-03
  7.51897224e-05 -1.76965079e-04 -1.78388454e-04  1.68150647e-03  1.67513230e-03
  1.71082194e-03 -1.66340387e-05 -1.79038562e-05  3.06524316e-05  1.08222955e-03
  6.49475107e-05  1.09531486e-04 -5.74152343e-05  9.73223042e-01  2.49826216e-02
  7.86263933e-05  1.21395770e-03  1.18427616e-04  1.35223621e-02 -3.16962196e-05
 -9.08245034e-04 -1.37945038e-04 -8.26505111e-03 -8.45231380e-03 -8.25724163e-03
 -1.53983751e-05 -3.01275254e-06 -2.59907844e-05 -6.13496799e-03 -1.17701828e-04
 -3.98194880e-04  5.59034301e-05  8.86727476e-06 -1.13461476e-04 -6.50754399e-07
 -1.24254892e-05  2.78246023e-06  4.01879171e-04 -1.12782592e-04  1.89421988e-04
  2.52222146e-04  5.80862576e-04 -1.25096217e-04 -3.19665359e-05  4.23133123e-04
 -1.94302820e-04 -9.16654090e-05  3.08056985e-05 -8.13550862e-05 -1.21903107e-04
  2.08256369e-04  2.68515780e-03 -3.35858576e-04  5.40704133e-04  8.29673274e-04
  2.88763985e-05  2.21832903e-05  8.07917177e-06 -1.55189888e-05  1.64920246e-05
  6.21321322e-05 -4.98461053e-06  4.21743604e-05  9.07624923e-06  3.48407968e-05
  1.83239653e-05 -6.29128890e-05 -7.26735282e-06  8.14735095e-06 -1.30289087e-05
  6.00441487e-05  1.49890711e-04 -1.27392494e-04  3.35327689e-04 -1.51465165e-06
  1.45966510e-04  4.66770992e-05  2.77782785e-05 -2.36513168e-05 -1.23151196e-07
  9.05126713e-06  1.66848957e-05 -3.36110161e-06 -3.34820767e-05 -2.03087124e-05
  1.44993658e-05  9.34737509e-07  1.24491551e-05  4.73170079e-06  3.87266210e-05
 -1.76163659e-05 -2.98272039e-04 -2.14238222e-04 -2.97750038e-04 -6.03552441e-05
  1.56693404e-05  3.25481242e-04  9.73223869e-01  2.49833815e-02  4.20814668e-04
 -6.10773944e-04 -9.83831412e-04  1.35566039e-02 -2.92315709e-04  4.72311733e-04
  6.93134797e-04 -8.27308118e-03 -8.30422592e-03 -8.37446722e-03  3.81036688e-05
  5.33198067e-05 -8.61730458e-05 -6.19748881e-03 -1.22661767e-04  1.37733784e-04
  3.94822446e-04  1.95342400e-01  5.01635373e-03  1.97021690e-05  2.68965944e-04
  2.51624491e-05  2.80274329e-03 -2.88182859e-05 -1.07360638e-04  2.17973482e-05
 -1.64399434e-03 -1.65724969e-03 -1.65226843e-03 -1.77406851e-06  6.53127635e-06
 -6.86709812e-06 -1.39303948e-03 -1.62508442e-06 -1.40960294e-04 -1.18011573e-04
  2.79867624e-01 -1.02399567e+00 -1.75421167e-03 -2.14610296e-03  3.02894689e-03
 -7.55096998e-02 -2.75892797e-04 -3.37640285e-04  4.76584392e-04  4.58022077e-02
  2.03669726e-04  2.50579543e-04 -3.53286042e-04  1.39502478e-02  1.39703739e-02
  1.39933281e-02  3.23846375e-05 -1.73575502e-05 -1.42111270e-05  6.17768969e-03
  1.63492756e-05  1.99027396e-05 -2.80671427e-05  1.97535726e-05 -1.08630500e-04
  6.68142266e-05 -6.89012472e-05  1.00187778e-04  1.27197718e-04  1.60030559e-04
 -2.00880834e-04  3.84976394e-04 -1.27692216e-04 -9.66819665e-05  1.13348810e-04
 -9.60529233e-05  1.66141376e-04 -1.19431264e-04 -7.39852960e-03 -1.30033627e-03
  1.68607543e-03 -1.95948164e-03 -2.47188038e-04  8.32978206e-04  1.97218190e-05
 -1.08762882e-04 -1.36326523e-04 -1.62061276e-05  1.99192575e-05  1.27782778e-04
 -4.34119707e-04 -1.34686308e-04  8.83020731e-05  1.94789524e-04 -1.15746847e-04
 -1.90227899e-04  1.23004391e-04 -5.41170238e-05  2.01808550e-05 -7.39894028e-03
  2.81360653e-03  1.66966004e-04 -6.55155806e-04 -2.47144365e-04  8.33148367e-04
  1.38059935e-04 -1.49930710e-04 -3.69657986e-05  6.96517602e-05  1.03633597e-04
  1.06426339e-03  1.51131757e-04 -2.42273297e-04 -4.14468419e-04 -1.54570027e-04
 -2.37589054e-04 -3.56393143e-04  8.76383700e-05  1.15465923e-04 -2.10703162e-04
 -1.05422511e-02 -1.26113818e-03  2.10280903e-03  3.27658233e-03  1.38046232e-04
 -1.49997965e-04 -1.07675389e-05 -1.28022892e-04 -2.12805963e-05  1.06465978e-03
  5.72588859e-05  4.97150286e-04  5.50725428e-05 -1.11610351e-04 -5.18975709e-04
 -1.18062243e-04 -1.47226269e-05 -7.10627705e-06 -7.90092715e-05 -1.05422705e-02
 -3.25428456e-04 -4.04395792e-03 -5.37679829e-04  3.76395574e-07 -1.34471838e-06
  8.93206249e-01 -1.79105391e-01  3.89985121e-01  8.21173430e-07  2.90196127e-02
 -5.99718097e-03  1.25437332e-02 -2.78180121e-06 -1.54476807e-02  2.93786623e-03
 -6.85620558e-03  1.31216744e-03 -1.56535130e-04 -1.15645992e-03  8.54101955e-04
 -9.22538204e-04  6.00054500e-04  3.59572837e-08 -1.87968800e-03 -4.07653781e-04
 -1.37610985e-03 -5.93189044e-05 -1.03342894e-03  5.83313750e-05 -5.47882546e-06
 -8.64037631e-06  4.31358574e-03  9.39850821e-04 -1.37985035e-03  2.51811130e-03
 -7.79201529e-04 -3.90275051e-04  2.88815987e-04 -1.82667465e-04  2.70955338e-04
 -5.49258280e-04 -1.35845859e-02 -1.97635651e-03  3.72965984e-03 -3.63981307e-03
 -4.55697749e-04  2.05145587e-03  5.93047787e-05  1.03333657e-03  3.41291578e-05
 -3.52189792e-05  3.33012715e-05 -4.31280254e-03  2.79933994e-03  8.97671425e-04
 -6.95344900e-04 -2.67751961e-04  4.93942489e-04  6.54313488e-04 -5.08509971e-04
  4.58034897e-04  7.89317319e-05  1.35883729e-02 -5.21559810e-03 -2.35366997e-04
  1.95458487e-03  4.55613245e-04 -2.05163134e-03  2.82731026e-05 -7.77623061e-05
  7.15132046e-05  1.29656607e-05  7.56804217e-05  5.25039250e-04 -6.66541883e-04
 -7.07857618e-05 -6.74884921e-04 -3.26632064e-04 -8.07720064e-05  3.10673558e-04
  1.80435608e-04  3.10136977e-04 -5.52493916e-07 -1.33249541e-03  1.75991827e-03
  1.76689731e-04  1.82588809e-03 -2.82004048e-05  7.74467357e-05  8.73548232e-05
  3.22153501e-05  4.83323201e-05 -5.23018070e-04 -8.17067533e-04 -2.53813370e-04
 -4.14759604e-04 -1.02315890e-04  1.45422080e-04  5.31887182e-05 -4.52925864e-04
 -4.24237795e-06 -2.01088133e-04  1.32990339e-03  2.18995585e-03  7.01723052e-04
  1.08291995e-03  1.19164780e-03 -4.69468601e-03  4.23080740e-01  5.18098055e-01
 -7.31064567e-01 -3.15747312e-04  1.38452356e-02  1.69544905e-02 -2.39234024e-02
  5.66727660e-03 -7.85850630e-03 -9.62171756e-03  1.35770063e-02  6.57606421e-04
 -1.20773171e-03 -7.87547290e-05  3.11673870e-04  3.08418038e-04 -1.23896354e-03
 -5.04408138e-04 -1.18771681e-03 -1.45372762e-03  2.05149055e-03  7.56181118e-05
  9.37911436e-04  3.63388933e-05  4.49145468e-06 -7.44925032e-05 -4.13490993e-03
 -1.36655036e-03  1.13513895e-03 -1.40878819e-03  2.32164698e-04  5.80910773e-04
  1.83554839e-04  3.17226393e-04 -5.82847781e-04  1.17374271e-04  9.12405385e-03
  2.74105424e-03 -1.00524930e-03  2.82083930e-03  3.68401329e-04  6.27544129e-04
  7.56139275e-05  9.37747384e-04  2.58992974e-05  7.16826469e-05 -3.29881641e-05
 -4.13407714e-03  2.26209555e-03 -3.80324619e-05 -1.39278695e-04 -3.34822091e-04
  5.82483692e-04  7.48773957e-04 -8.27559514e-05 -2.06301922e-04 -1.15238034e-04
  9.12293349e-03 -3.96696232e-03 -4.96888804e-04 -7.02091419e-04  3.68259770e-04
  6.27993347e-04  1.44001836e-04 -5.20935365e-04 -3.48918323e-05  1.48135653e-04
  1.03001579e-04  3.01964238e-03  3.47249660e-04 -1.29122857e-03 -1.01719864e-03
 -3.92931978e-04  1.83249921e-05 -5.60361380e-04 -1.95465601e-05  1.37615513e-04
  1.45118586e-04 -1.09277337e-02 -6.34186888e-04  4.07584066e-03  2.63190543e-03
  1.44022088e-04 -5.21013281e-04  2.33646256e-05 -1.62209266e-04 -8.31932333e-05
  3.02018825e-03 -1.55621573e-04  1.52536460e-03  6.87466826e-04 -3.43162164e-04
 -3.95466935e-04 -1.96420233e-04 -1.79290701e-04 -3.36458359e-05  3.33343390e-04
 -1.09281315e-02  5.63563490e-04 -4.16139182e-03 -2.51205459e-03  1.51148153e-07
 -5.48084940e-07  7.16763509e-02 -8.25273016e-01 -5.43382261e-01  2.39285802e-07
  2.60140732e-03 -2.78360136e-02 -1.82214326e-02 -2.75717765e-07 -1.97408718e-03
  1.51209893e-02  9.57373276e-03 -1.95502878e-04  8.23798016e-04 -6.28466356e-04
  2.50578332e-04  4.04959905e-04 -4.13949686e-04 -1.70065375e-07 -1.18346692e-05
  1.35802526e-03  9.55601825e-04  1.98466284e-05  1.34836292e-04  1.01345963e-05
 -8.38245179e-05 -4.77908395e-05 -4.83648554e-04 -1.29109443e-04  7.87487802e-04
  4.58654473e-04  1.02120597e-04 -3.53398185e-04  4.04016893e-04  2.43657499e-04
  5.09677279e-05  1.61961712e-04 -1.15619998e-03 -4.75643513e-04 -3.04274521e-04
 -3.45848423e-04  3.62797567e-04  8.93236013e-04 -1.98417044e-05 -1.34843849e-04
  1.37516761e-05 -7.94218946e-05 -5.40610482e-05  4.83714631e-04 -1.44812997e-04
  7.68421752e-04  4.85541403e-04  3.22418660e-05 -1.70495944e-04 -1.44175803e-05
 -3.95739017e-04 -3.15101604e-04  1.05407936e-04  1.15663622e-03 -3.84277983e-04
 -1.92636562e-04 -5.04051542e-04 -3.62818322e-04 -8.93116050e-04  2.87631090e-04
 -9.90618814e-04 -1.71376631e-04  1.93528884e-04  3.67142738e-04  5.90758604e-03
  1.27764384e-03 -1.36710837e-03 -2.71735433e-03 -4.04308175e-04 -7.48330281e-04
 -6.09112297e-04  7.49523149e-05  3.89825741e-05 -3.06593458e-04 -1.62902159e-02
 -2.80318411e-03  2.60855533e-03  5.61826914e-03 -2.87626684e-04  9.90609301e-04
  3.61483476e-05  4.47459378e-04  8.82451368e-06 -5.90753675e-03 -2.90756196e-04
 -3.28641561e-03 -9.14595272e-06  4.14598474e-04  8.32086956e-04  5.15048776e-04
 -2.81659499e-05 -1.77852348e-05  2.76836629e-04  1.62901035e-02  5.95809502e-04
  6.76814359e-03 -2.51274674e-04  5.23015764e-02 -2.28516491e-01 -1.20842336e-04
 -1.56413225e-04  2.23784533e-04  5.06647246e-01  3.09758974e-03  3.80814021e-03
 -5.38009780e-03 -2.57661973e-01 -3.22693148e-03 -3.98928351e-03  5.62393185e-03
 -1.93023922e-02 -1.26288820e-03 -1.06763876e-02 -1.49315228e-03 -3.65002462e-03
  1.07240804e-02 -2.55801970e-02 -8.97888970e-04 -1.10143952e-03  1.55519186e-03
 -8.62989738e-02  1.81075419e-01  3.23563623e-02 -4.77747871e-02  2.71423406e-02
  2.08686722e-01  2.79179447e-02 -3.66503055e-02  2.84296631e-02 -3.43510564e-03
  1.58303035e-03  7.79245019e-03 -6.57967192e-03  6.79551754e-03 -3.12289463e-03
  4.20550830e-02  4.75610148e-03 -8.61578469e-03 -1.13943301e-03  4.42106652e-02
 -1.76206747e-02 -8.62973993e-02  1.81072777e-01 -5.89862012e-02  1.51637720e-02
  1.88721620e-02  2.08680575e-01 -5.20134377e-02  7.14492650e-03  1.32006196e-02
  1.14888502e-02  6.38981967e-04 -6.18758869e-03  3.52625192e-03 -3.41932269e-03
  3.36623232e-03  4.20298557e-02 -6.14184849e-03  6.90603641e-03  3.54595186e-03
  4.42094666e-02 -1.76148960e-02 -8.24482528e-02  1.73351074e-01  3.01821646e-02
 -4.19570386e-02 -7.10355196e-02  1.79055741e-01  1.90166159e-02 -2.56814187e-02
 -4.27431606e-02 -3.60277776e-03 -4.35597388e-04  8.16504817e-03 -4.29217977e-03
 -7.05739658e-03  1.07673401e-02  6.10471935e-02  6.88453528e-03 -7.98167332e-03
 -1.85412324e-02 -8.24517249e-02  1.73359133e-01  6.86259341e-03  8.72977164e-02
  7.06184316e-03  1.79060724e-01  3.39010051e-03  5.31070164e-02  4.04482728e-03
 -6.33006832e-03  1.62882053e-02 -5.83148088e-03  1.67087481e-03  3.41327835e-04
  2.87018183e-03  6.10367434e-02  3.74457806e-03  2.09916155e-02  1.76836127e-04
  6.85172507e-06 -3.04643883e-05  6.49855400e-02  3.04221584e-03  3.97100281e-02
  6.90326202e-05 -1.44328857e-01 -6.75195443e-03 -8.81903655e-02 -1.33221106e-05
  5.47177870e-02 -5.71944203e-03  2.75733535e-02 -3.36189106e-02  8.23010792e-03
  2.53801811e-02 -1.98817723e-02  2.50201742e-02 -1.70558913e-02 -4.76573786e-06
  5.32420965e-03  2.41382092e-03  4.79060695e-03 -1.49689515e-01  3.35207013e-01
  3.04664845e-02 -7.61254994e-02 -5.24929513e-03  3.32029861e-01  2.04896816e-02
 -4.44549482e-02  1.75962866e-03 -4.50762949e-03  5.58894298e-03  1.10306359e-02
 -6.15497967e-03  3.60852236e-03  4.44925301e-03  5.25945006e-02  4.38807212e-03
 -1.71033575e-02 -8.00531341e-03  9.76388477e-02 -3.46595328e-02  1.49803261e-01
 -3.35463627e-01  5.00705828e-02 -5.22060481e-02 -3.90846077e-02 -3.32285427e-01
  3.39968817e-02 -2.79656053e-02 -2.15503994e-02 -7.03551230e-03 -9.52251335e-03
  4.43732266e-03 -3.85664347e-03  2.73478290e-03 -7.58443925e-03 -5.26129747e-02
  5.38187157e-03 -1.58955060e-02 -9.71878502e-03 -9.77132520e-02  3.46738454e-02
  1.15124858e-02 -2.57434837e-02 -1.39935745e-02  4.96398331e-03  3.03744759e-03
 -2.12906708e-02 -5.71072610e-03  1.24386850e-03 -1.10657985e-03 -8.01289882e-04
 -1.36328698e-05  5.87685419e-04  1.00258859e-03  1.53799162e-03 -2.93222322e-04
  7.44121306e-03 -1.00099176e-02  2.45357029e-04 -9.00843963e-03 -1.16037610e-02
  2.59452967e-02 -9.18774263e-03  1.09202381e-02 -5.24153811e-03  2.14761799e-02
 -4.88168229e-03  2.28667075e-03 -2.53424883e-03 -6.28111039e-04  1.26795170e-03
 -4.11462972e-04 -1.42279050e-03 -1.76327289e-04 -7.91192435e-04 -7.41823808e-03
 -1.21506752e-02 -2.36159835e-03 -5.30891098e-03  1.51507515e-02 -6.72088850e-02