Generated by Psi4
     FORCE                           RHF                       TESTBAS
Number of atoms                            I               39
Charge                                     I                0
Multiplicity                               I                1
Number of electrons                        I              122
Number of alpha electrons                  I               61
Number of beta electrons                   I               61
Number of basis functions                  I              350
Number of independent functions            I              350
Atomic numbers                             I   N=          39
           6           6           6           6           6           6
           6           1           1           1           1           6
           6           1           6           1           1           1
           1           1           6           1           1           1
           6           1           7           1           1           6
           1           1           1           6           1           1
           1           8           1
Nuclear charges                            R   N=          39
  6.00000000e+00  6.00000000e+00  6.00000000e+00  6.00000000e+00  6.00000000e+00
  6.00000000e+00  6.00000000e+00  1.00000000e+00  1.00000000e+00  1.00000000e+00
  1.00000000e+00  6.00000000e+00  6.00000000e+00  1.00000000e+00  6.00000000e+00
  1.00000000e+00  1.00000000e+00  1.00000000e+00  1.00000000e+00  1.00000000e+00
  6.00000000e+00  1.00000000e+00  1.00000000e+00  1.00000000e+00  6.00000000e+00
  1.00000000e+00  7.00000000e+00  1.00000000e+00  1.00000000e+00  6.00000000e+00
  1.00000000e+00  1.00000000e+00  1.00000000e+00  6.00000000e+00  1.00000000e+00
  1.00000000e+00  1.00000000e+00  8.00000000e+00  1.00000000e+00
Current cartesian coordinates              R   N=         117
 -1.16314002e+00  3.10823458e-01  8.45908432e-01  1.51545181e-01  2.36730424e+00
 -6.86736584e-01 -4.96431969e-02  2.44668867e+00 -3.33685165e+00  1.14108487e+00
  4.35504761e+00 -4.70873296e+00  2.55031565e+00  6.22531852e+00 -3.48318976e+00
  2.74914261e+00  6.15662496e+00 -8.51945432e-01  1.55891292e+00  4.24172720e+00
  5.31006873e-01 -1.14329814e+00  1.01906647e+00 -4.32942737e+00  9.76137848e-01
  4.39969333e+00 -6.75637877e+00  3.47574373e+00  7.71278399e+00 -4.56212490e+00
  1.75886403e+00  4.24341405e+00  2.57505784e+00 -3.29871490e-02 -2.35067072e+00
  2.45512733e-01 -4.09226521e+00  4.72711762e-01  4.98631443e-01 -7.48211834e-01
  6.96877475e-01  2.84648617e+00 -5.59449770e+00  3.52706643e-01  2.97829088e+00
 -4.73418751e+00 -1.02670373e+00 -7.86476467e-01 -4.55776826e+00  2.25765127e+00
 -4.43497591e-01 -5.25365046e+00 -1.40320706e+00  4.02095450e+00 -7.63130777e+00
  4.82301948e-01  2.61415661e+00 -5.07970904e+00  1.92963270e+00  4.22313674e+00
  2.84343235e+00 -2.40876242e+00  6.41800115e-01  3.32102101e+00 -1.90793571e+00
  2.60009648e+00  3.81127723e+00 -1.07240120e+00 -6.04192918e-01  3.58401720e+00
 -4.30594081e+00  2.89983003e-01 -1.31334686e+00 -4.43140692e+00  1.83913598e+00
 -4.24973921e-01 -2.72552415e+00 -1.76089752e+00 -3.32847962e-01 -6.98665975e+00
  1.39187791e+00 -3.38362287e+00 -4.40148483e+00  1.53827552e+00 -9.91274412e-01
 -3.99774676e+00  3.84362996e+00 -9.98145404e-01 -7.95987464e+00 -1.09822566e+00
 -3.07231029e+00 -8.07604869e+00 -1.39233271e+00 -2.09325094e-01 -9.85972556e+00
 -1.32826841e+00 -2.02834125e-01 -6.76494436e+00 -2.58592509e+00 -1.15713737e+00
 -8.72077024e+00  3.36766271e+00 -5.25785291e-01 -8.03335456e+00  5.21535204e+00
 -3.14720312e-01 -1.05859446e+01  3.05347941e+00 -3.24061085e+00 -8.95411331e+00
  3.43463493e+00  4.09198467e+00  7.92100030e+00  4.98688697e-01  4.83181178e+00
  9.14563714e+00 -6.46517870e-01
Integer atomic weights                     I   N=          39
          12          12          12          12          12          12
          12           1           1           1           1          12
          12           1          12           1           1           1
           1           1          12           1           1           1
          12           1          14           1           1          12
           1           1           1          12           1           1
           1          15           1
Real atomic weights                        R   N=          39
  1.20000000e+01  1.20000000e+01  1.20000000e+01  1.20000000e+01  1.20000000e+01
  1.20000000e+01  1.20000000e+01  1.00782503e+00  1.00782503e+00  1.00782503e+00
  1.00782503e+00  1.20000000e+01  1.20000000e+01  1.00782503e+00  1.20000000e+01
  1.00782503e+00  1.00782503e+00  1.00782503e+00  1.00782503e+00  1.00782503e+00
  1.20000000e+01  1.00782503e+00  1.00782503e+00  1.00782503e+00  1.20000000e+01
  1.00782503e+00  1.40030740e+01  1.00782503e+00  1.00782503e+00  1.20000000e+01
  1.00782503e+00  1.00782503e+00  1.00782503e+00  1.20000000e+01  1.00782503e+00
  1.00782503e+00  1.00782503e+00  1.59949146e+01  1.00782503e+00
Number of primitive shells                 I              364
Number of contracted shells                I              174
Pure/Cartesian d shells                    I                1
Pure/Cartesian f shells                    I                1
Highest angular momentum                   I                2
Largest degree of contraction              I                6
Shell types                                I   N=         174
           0           0           1           0           1           2
           0           1           0           0           1           0
           1           2           0           1           0           0
           1           0           1           2           0           1
           0           0           1           0           1           2
           0           1           0           0           1           0
           1           2           0           1           0           0
           1           0           1           2           0           1
           0           0           1           0           1           2
           0           1           0           0           0           0
           0           0           0           0           0           0
           1           0           1           2           0           1
           0           0           1           0           1           2
           0           1           0           0           0           0
           1           0           1           2           0           1
           0           0           0           0           0           0
           0           0           0           0           0           0
           1           0           1           2           0           1
           0           0           0           0           0           0
           0           0           1           0           1           2
           0           1           0           0           0           0
           1           0           1           2           0           1
           0           0           0           0           0           0
           1           0           1           2           0           1
           0           0           0           0           0           0
           0           0           1           0           1           2
           0           1           0           0           0           0
           0           0           0           0           1           0
           1           2           0           1           0           0
Number of primitives per shell             I   N=         174
           6           3           3           1           1           1
           1           1           6           3           3           1
           1           1           1           1           6           3
           3           1           1           1           1           1
           6           3           3           1           1           1
           1           1           6           3           3           1
           1           1           1           1           6           3
           3           1           1           1           1           1
           6           3           3           1           1           1
           1           1           3           1           3           1
           3           1           3           1           6           3
           3           1           1           1           1           1
           6           3           3           1           1           1
           1           1           3           1           6           3
           3           1           1           1           1           1
           3           1           3           1           3           1
           3           1           3           1           6           3
           3           1           1           1           1           1
           3           1           3           1           3           1
           6           3           3           1           1           1
           1           1           3           1           6           3
           3           1           1           1           1           1
           3           1           3           1           6           3
           3           1           1           1           1           1
           3           1           3           1           3           1
           6           3           3           1           1           1
           1           1           3           1           3           1
           3           1           6           3           3           1
           1           1           1           1           3           1
Shell to atom map                          I   N=         174
           1           1           1           1           1           1
           1           1           2           2           2           2
           2           2           2           2           3           3
           3           3           3           3           3           3
           4           4           4           4           4           4
           4           4           5           5           5           5
           5           5           5           5           6           6
           6           6           6           6           6           6
           7           7           7           7           7           7
           7           7           8           8           9           9
          10          10          11          11          12          12
          12          12          12          12          12          12
          13          13          13          13          13          13
          13          13          14          14          15          15
          15          15          15          15          15          15
          16          16          17          17          18          18
          19          19          20          20          21          21
          21          21          21          21          21          21
          22          22          23          23          24          24
          25          25          25          25          25          25
          25          25          26          26          27          27
          27          27          27          27          27          27
          28          28          29          29          30          30
          30          30          30          30          30          30
          31          31          32          32          33          33
          34          34          34          34          34          34
          34          34          35          35          36          36
          37          37          38          38          38          38
          38          38          38          38          39          39
Primitive exponents                        R   N=         364
  3.04752490e+03  4.57369510e+02  1.03948690e+02  2.92101550e+01  9.28666300e+00
  3.16392700e+00  7.86827240e+00  1.88128850e+00  5.44249300e-01  7.86827240e+00
  1.88128850e+00  5.44249300e-01  1.68714400e-01  1.68714400e-01  8.00000000e-01
  4.38000000e-02  4.38000000e-02  3.04752490e+03  4.57369510e+02  1.03948690e+02
  2.92101550e+01  9.28666300e+00  3.16392700e+00  7.86827240e+00  1.88128850e+00
  5.44249300e-01  7.86827240e+00  1.88128850e+00  5.44249300e-01  1.68714400e-01
  1.68714400e-01  8.00000000e-01  4.38000000e-02  4.38000000e-02  3.04752490e+03
  4.57369510e+02  1.03948690e+02  2.92101550e+01  9.28666300e+00  3.16392700e+00
  7.86827240e+00  1.88128850e+00  5.44249300e-01  7.86827240e+00  1.88128850e+00
  5.44249300e-01  1.68714400e-01  1.68714400e-01  8.00000000e-01  4.38000000e-02
  4.38000000e-02  3.04752490e+03  4.57369510e+02  1.03948690e+02  2.92101550e+01
  9.28666300e+00  3.16392700e+00  7.86827240e+00  1.88128850e+00  5.44249300e-01
  7.86827240e+00  1.88128850e+00  5.44249300e-01  1.68714400e-01  1.68714400e-01
  8.00000000e-01  4.38000000e-02  4.38000000e-02  3.04752490e+03  4.57369510e+02
  1.03948690e+02  2.92101550e+01  9.28666300e+00  3.16392700e+00  7.86827240e+00
  1.88128850e+00  5.44249300e-01  7.86827240e+00  1.88128850e+00  5.44249300e-01
  1.68714400e-01  1.68714400e-01  8.00000000e-01  4.38000000e-02  4.38000000e-02
  3.04752490e+03  4.57369510e+02  1.03948690e+02  2.92101550e+01  9.28666300e+00
  3.16392700e+00  7.86827240e+00  1.88128850e+00  5.44249300e-01  7.86827240e+00
  1.88128850e+00  5.44249300e-01  1.68714400e-01  1.68714400e-01  8.00000000e-01
  4.38000000e-02  4.38000000e-02  3.04752490e+03  4.57369510e+02  1.03948690e+02
  2.92101550e+01  9.28666300e+00  3.16392700e+00  7.86827240e+00  1.88128850e+00
  5.44249300e-01  7.86827240e+00  1.88128850e+00  5.44249300e-01  1.68714400e-01
  1.68714400e-01  8.00000000e-01  4.38000000e-02  4.38000000e-02  1.87311370e+01
  2.82539370e+00  6.40121700e-01  1.61277800e-01  1.87311370e+01  2.82539370e+00
  6.40121700e-01  1.61277800e-01  1.87311370e+01  2.82539370e+00  6.40121700e-01
  1.61277800e-01  1.87311370e+01  2.82539370e+00  6.40121700e-01  1.61277800e-01
  3.04752490e+03  4.57369510e+02  1.03948690e+02  2.92101550e+01  9.28666300e+00
  3.16392700e+00  7.86827240e+00  1.88128850e+00  5.44249300e-01  7.86827240e+00
  1.88128850e+00  5.44249300e-01  1.68714400e-01  1.68714400e-01  8.00000000e-01
  4.38000000e-02  4.38000000e-02  3.04752490e+03  4.57369510e+02  1.03948690e+02
  2.92101550e+01  9.28666300e+00  3.16392700e+00  7.86827240e+00  1.88128850e+00
  5.44249300e-01  7.86827240e+00  1.88128850e+00  5.44249300e-01  1.68714400e-01
  1.68714400e-01  8.00000000e-01  4.38000000e-02  4.38000000e-02  1.87311370e+01
  2.82539370e+00  6.40121700e-01  1.61277800e-01  3.04752490e+03  4.57369510e+02
  1.03948690e+02  2.92101550e+01  9.28666300e+00  3.16392700e+00  7.86827240e+00
  1.88128850e+00  5.44249300e-01  7.86827240e+00  1.88128850e+00  5.44249300e-01
  1.68714400e-01  1.68714400e-01  8.00000000e-01  4.38000000e-02  4.38000000e-02
  1.87311370e+01  2.82539370e+00  6.40121700e-01  1.61277800e-01  1.87311370e+01
  2.82539370e+00  6.40121700e-01  1.61277800e-01  1.87311370e+01  2.82539370e+00
  6.40121700e-01  1.61277800e-01  1.87311370e+01  2.82539370e+00  6.40121700e-01
  1.61277800e-01  1.87311370e+01  2.82539370e+00  6.40121700e-01  1.61277800e-01
  3.04752490e+03  4.57369510e+02  1.03948690e+02  2.92101550e+01  9.28666300e+00
  3.16392700e+00  7.86827240e+00  1.88128850e+00  5.44249300e-01  7.86827240e+00
  1.88128850e+00  5.44249300e-01  1.68714400e-01  1.68714400e-01  8.00000000e-01
  4.38000000e-02  4.38000000e-02  1.87311370e+01  2.82539370e+00  6.40121700e-01
  1.61277800e-01  1.87311370e+01  2.82539370e+00  6.40121700e-01  1.61277800e-01
  1.87311370e+01  2.82539370e+00  6.40121700e-01  1.61277800e-01  3.04752490e+03
  4.57369510e+02  1.03948690e+02  2.92101550e+01  9.28666300e+00  3.16392700e+00
  7.86827240e+00  1.88128850e+00  5.44249300e-01  7.86827240e+00  1.88128850e+00
  5.44249300e-01  1.68714400e-01  1.68714400e-01  8.00000000e-01  4.38000000e-02
  4.38000000e-02  1.87311370e+01  2.82539370e+00  6.40121700e-01  1.61277800e-01
  4.17351100e+03  6.27457900e+02  1.42902100e+02  4.02343300e+01  1.28202100e+01
  4.39043700e+00  1.16263580e+01  2.71628000e+00  7.72218000e-01  1.16263580e+01
  2.71628000e+00  7.72218000e-01  2.12031300e-01  2.12031300e-01  8.00000000e-01
  6.39000000e-02  6.39000000e-02  1.87311370e+01  2.82539370e+00  6.40121700e-01
  1.61277800e-01  1.87311370e+01  2.82539370e+00  6.40121700e-01  1.61277800e-01
  3.04752490e+03  4.57369510e+02  1.03948690e+02  2.92101550e+01  9.28666300e+00
  3.16392700e+00  7.86827240e+00  1.88128850e+00  5.44249300e-01  7.86827240e+00
  1.88128850e+00  5.44249300e-01  1.68714400e-01  1.68714400e-01  8.00000000e-01
  4.38000000e-02  4.38000000e-02  1.87311370e+01  2.82539370e+00  6.40121700e-01
  1.61277800e-01  1.87311370e+01  2.82539370e+00  6.40121700e-01  1.61277800e-01
  1.87311370e+01  2.82539370e+00  6.40121700e-01  1.61277800e-01  3.04752490e+03
  4.57369510e+02  1.03948690e+02  2.92101550e+01  9.28666300e+00  3.16392700e+00
  7.86827240e+00  1.88128850e+00  5.44249300e-01  7.86827240e+00  1.88128850e+00
  5.44249300e-01  1.68714400e-01  1.68714400e-01  8.00000000e-01  4.38000000e-02
  4.38000000e-02  1.87311370e+01  2.82539370e+00  6.40121700e-01  1.61277800e-01
  1.87311370e+01  2.82539370e+00  6.40121700e-01  1.61277800e-01  1.87311370e+01
  2.82539370e+00  6.40121700e-01  1.61277800e-01  5.48467170e+03  8.25234950e+02
  1.88046960e+02  5.29645000e+01  1.68975700e+01  5.79963530e+00  1.55396160e+01
  3.59993360e+00  1.01376180e+00  1.55396160e+01  3.59993360e+00  1.01376180e+00
  2.70005800e-01  2.70005800e-01  8.00000000e-01  8.45000000e-02  8.45000000e-02
  1.87311370e+01  2.82539370e+00  6.40121700e-01  1.61277800e-01
Contraction coefficients                   R   N=         364
  1.83470016e-03  1.40373012e-02  6.88426061e-02  2.32184421e-01  4.67941342e-01
  3.62312032e-01 -1.19332409e-01 -1.60854212e-01  1.14345648e+00  6.89990956e-02
  3.16423980e-01  7.44308252e-01  1.00000000e+00  1.00000000e+00  1.00000000e+00
  1.00000000e+00  1.00000000e+00  1.83470016e-03  1.40373012e-02  6.88426061e-02
  2.32184421e-01  4.67941342e-01  3.62312032e-01 -1.19332409e-01 -1.60854212e-01
  1.14345648e+00  6.89990956e-02  3.16423980e-01  7.44308252e-01  1.00000000e+00
  1.00000000e+00  1.00000000e+00  1.00000000e+00  1.00000000e+00  1.83470016e-03
  1.40373012e-02  6.88426061e-02  2.32184421e-01  4.67941342e-01  3.62312032e-01
 -1.19332409e-01 -1.60854212e-01  1.14345648e+00  6.89990956e-02  3.16423980e-01
  7.44308252e-01  1.00000000e+00  1.00000000e+00  1.00000000e+00  1.00000000e+00
  1.00000000e+00  1.83470016e-03  1.40373012e-02  6.88426061e-02  2.32184421e-01
  4.67941342e-01  3.62312032e-01 -1.19332409e-01 -1.60854212e-01  1.14345648e+00
  6.89990956e-02  3.16423980e-01  7.44308252e-01  1.00000000e+00  1.00000000e+00
  1.00000000e+00  1.00000000e+00  1.00000000e+00  1.83470016e-03  1.40373012e-02
  6.88426061e-02  2.32184421e-01  4.67941342e-01  3.62312032e-01 -1.19332409e-01
 -1.60854212e-01  1.14345648e+00  6.89990956e-02  3.16423980e-01  7.44308252e-01
  1.00000000e+00  1.00000000e+00  1.00000000e+00  1.00000000e+00  1.00000000e+00
  1.83470016e-03  1.40373012e-02  6.88426061e-02  2.32184421e-01  4.67941342e-01
  3.62312032e-01 -1.19332409e-01 -1.60854212e-01  1.14345648e+00  6.89990956e-02
  3.16423980e-01  7.44308252e-01  1.00000000e+00  1.00000000e+00  1.00000000e+00
  1.00000000e+00  1.00000000e+00  1.83470016e-03  1.40373012e-02  6.88426061e-02
  2.32184421e-01  4.67941342e-01  3.62312032e-01 -1.19332409e-01 -1.60854212e-01
  1.14345648e+00  6.89990956e-02  3.16423980e-01  7.44308252e-01  1.00000000e+00
  1.00000000e+00  1.00000000e+00  1.00000000e+00  1.00000000e+00  3.34945995e-02
  2.34726947e-01  8.13757318e-01  1.00000000e+00  3.34945995e-02  2.34726947e-01
  8.13757318e-01  1.00000000e+00  3.34945995e-02  2.34726947e-01  8.13757318e-01
  1.00000000e+00  3.34945995e-02  2.34726947e-01  8.13757318e-01  1.00000000e+00
  1.83470016e-03  1.40373012e-02  6.88426061e-02  2.32184421e-01  4.67941342e-01
  3.62312032e-01 -1.19332409e-01 -1.60854212e-01  1.14345648e+00  6.89990956e-02
  3.16423980e-01  7.44308252e-01  1.00000000e+00  1.00000000e+00  1.00000000e+00
  1.00000000e+00  1.00000000e+00  1.83470016e-03  1.40373012e-02  6.88426061e-02
  2.32184421e-01  4.67941342e-01  3.62312032e-01 -1.19332409e-01 -1.60854212e-01
  1.14345648e+00  6.89990956e-02  3.16423980e-01  7.44308252e-01  1.00000000e+00
  1.00000000e+00  1.00000000e+00  1.00000000e+00  1.00000000e+00  3.34945995e-02
  2.34726947e-01  8.13757318e-01  1.00000000e+00  1.83470016e-03  1.40373012e-02
  6.88426061e-02  2.32184421e-01  4.67941342e-01  3.62312032e-01 -1.19332409e-01
 -1.60854212e-01  1.14345648e+00  6.89990956e-02  3.16423980e-01  7.44308252e-01
  1.00000000e+00  1.00000000e+00  1.00000000e+00  1.00000000e+00  1.00000000e+00
  3.34945995e-02  2.34726947e-01  8.13757318e-01  1.00000000e+00  3.34945995e-02
  2.34726947e-01  8.13757318e-01  1.00000000e+00  3.34945995e-02  2.34726947e-01
  8.13757318e-01  1.00000000e+00  3.34945995e-02  2.34726947e-01  8.13757318e-01
  1.00000000e+00  3.34945995e-02  2.34726947e-01  8.13757318e-01  1.00000000e+00
  1.83470016e-03  1.40373012e-02  6.88426061e-02  2.32184421e-01  4.67941342e-01
  3.62312032e-01 -1.19332409e-01 -1.60854212e-01  1.14345648e+00  6.89990956e-02
  3.16423980e-01  7.44308252e-01  1.00000000e+00  1.00000000e+00  1.00000000e+00
  1.00000000e+00  1.00000000e+00  3.34945995e-02  2.34726947e-01  8.13757318e-01
  1.00000000e+00  3.34945995e-02  2.34726947e-01  8.13757318e-01  1.00000000e+00
  3.34945995e-02  2.34726947e-01  8.13757318e-01  1.00000000e+00  1.83470016e-03
  1.40373012e-02  6.88426061e-02  2.32184421e-01  4.67941342e-01  3.62312032e-01
 -1.19332409e-01 -1.60854212e-01  1.14345648e+00  6.89990956e-02  3.16423980e-01
  7.44308252e-01  1.00000000e+00  1.00000000e+00  1.00000000e+00  1.00000000e+00
  1.00000000e+00  3.34945995e-02  2.34726947e-01  8.13757318e-01  1.00000000e+00
  1.83479944e-03  1.39949958e-02  6.85869792e-02  2.32240930e-01  4.69069858e-01
  3.60454891e-01 -1.14961023e-01 -1.69118034e-01  1.14585223e+00  6.75800232e-02
  3.23907111e-01  7.40895255e-01  1.00000000e+00  1.00000000e+00  1.00000000e+00
  1.00000000e+00  1.00000000e+00  3.34945995e-02  2.34726947e-01  8.13757318e-01
  1.00000000e+00  3.34945995e-02  2.34726947e-01  8.13757318e-01  1.00000000e+00
  1.83470016e-03  1.40373012e-02  6.88426061e-02  2.32184421e-01  4.67941342e-01
  3.62312032e-01 -1.19332409e-01 -1.60854212e-01  1.14345648e+00  6.89990956e-02
  3.16423980e-01  7.44308252e-01  1.00000000e+00  1.00000000e+00  1.00000000e+00
  1.00000000e+00  1.00000000e+00  3.34945995e-02  2.34726947e-01  8.13757318e-01
  1.00000000e+00  3.34945995e-02  2.34726947e-01  8.13757318e-01  1.00000000e+00
  3.34945995e-02  2.34726947e-01  8.13757318e-01  1.00000000e+00  1.83470016e-03
  1.40373012e-02  6.88426061e-02  2.32184421e-01  4.67941342e-01  3.62312032e-01
 -1.19332409e-01 -1.60854212e-01  1.14345648e+00  6.89990956e-02  3.16423980e-01
  7.44308252e-01  1.00000000e+00  1.00000000e+00  1.00000000e+00  1.00000000e+00
  1.00000000e+00  3.34945995e-02  2.34726947e-01  8.13757318e-01  1.00000000e+00
  3.34945995e-02  2.34726947e-01  8.13757318e-01  1.00000000e+00  3.34945995e-02
  2.34726947e-01  8.13757318e-01  1.00000000e+00  1.83109981e-03  1.39500985e-02
  6.84450927e-02  2.32714275e-01  4.70192950e-01  3.58520862e-01 -1.10777504e-01
 -1.48026305e-01  1.13076704e+00  7.08742995e-02  3.39752798e-01  7.27158595e-01
  1.00000000e+00  1.00000000e+00  1.00000000e+00  1.00000000e+00  1.00000000e+00
  3.34945995e-02  2.34726947e-01  8.13757318e-01  1.00000000e+00
Coordinates of each shell                  R   N=         522
 -1.16314002e+00  3.10823458e-01  8.45908432e-01 -1.16314002e+00  3.10823458e-01
  8.45908432e-01 -1.16314002e+00  3.10823458e-01  8.45908432e-01 -1.16314002e+00
  3.10823458e-01  8.45908432e-01 -1.16314002e+00  3.10823458e-01  8.45908432e-01
 -1.16314002e+00  3.10823458e-01  8.45908432e-01 -1.16314002e+00  3.10823458e-01
  8.45908432e-01 -1.16314002e+00  3.10823458e-01  8.45908432e-01  1.51545181e-01
  2.36730424e+00 -6.86736584e-01  1.51545181e-01  2.36730424e+00 -6.86736584e-01
  1.51545181e-01  2.36730424e+00 -6.86736584e-01  1.51545181e-01  2.36730424e+00
 -6.86736584e-01  1.51545181e-01  2.36730424e+00 -6.86736584e-01  1.51545181e-01
  2.36730424e+00 -6.86736584e-01  1.51545181e-01  2.36730424e+00 -6.86736584e-01
  1.51545181e-01  2.36730424e+00 -6.86736584e-01 -4.96431969e-02  2.44668867e+00
 -3.33685165e+00 -4.96431969e-02  2.44668867e+00 -3.33685165e+00 -4.96431969e-02
  2.44668867e+00 -3.33685165e+00 -4.96431969e-02  2.44668867e+00 -3.33685165e+00
 -4.96431969e-02  2.44668867e+00 -3.33685165e+00 -4.96431969e-02  2.44668867e+00
 -3.33685165e+00 -4.96431969e-02  2.44668867e+00 -3.33685165e+00 -4.96431969e-02
  2.44668867e+00 -3.33685165e+00  1.14108487e+00  4.35504761e+00 -4.70873296e+00
  1.14108487e+00  4.35504761e+00 -4.70873296e+00  1.14108487e+00  4.35504761e+00
 -4.70873296e+00  1.14108487e+00  4.35504761e+00 -4.70873296e+00  1.14108487e+00
  4.35504761e+00 -4.70873296e+00  1.14108487e+00  4.35504761e+00 -4.70873296e+00
  1.14108487e+00  4.35504761e+00 -4.70873296e+00  1.14108487e+00  4.35504761e+00
 -4.70873296e+00  2.55031565e+00  6.22531852e+00 -3.48318976e+00  2.55031565e+00
  6.22531852e+00 -3.48318976e+00  2.55031565e+00  6.22531852e+00 -3.48318976e+00
  2.55031565e+00  6.22531852e+00 -3.48318976e+00  2.55031565e+00  6.22531852e+00
 -3.48318976e+00  2.55031565e+00  6.22531852e+00 -3.48318976e+00  2.55031565e+00
  6.22531852e+00 -3.48318976e+00  2.55031565e+00  6.22531852e+00 -3.48318976e+00
  2.74914261e+00  6.15662496e+00 -8.51945432e-01  2.74914261e+00  6.15662496e+00
 -8.51945432e-01  2.74914261e+00  6.15662496e+00 -8.51945432e-01  2.74914261e+00
  6.15662496e+00 -8.51945432e-01  2.74914261e+00  6.15662496e+00 -8.51945432e-01
  2.74914261e+00  6.15662496e+00 -8.51945432e-01  2.74914261e+00  6.15662496e+00
 -8.51945432e-01  2.74914261e+00  6.15662496e+00 -8.51945432e-01  1.55891292e+00
  4.24172720e+00  5.31006873e-01  1.55891292e+00  4.24172720e+00  5.31006873e-01
  1.55891292e+00  4.24172720e+00  5.31006873e-01  1.55891292e+00  4.24172720e+00
  5.31006873e-01  1.55891292e+00  4.24172720e+00  5.31006873e-01  1.55891292e+00
  4.24172720e+00  5.31006873e-01  1.55891292e+00  4.24172720e+00  5.31006873e-01
  1.55891292e+00  4.24172720e+00  5.31006873e-01 -1.14329814e+00  1.01906647e+00
 -4.32942737e+00 -1.14329814e+00  1.01906647e+00 -4.32942737e+00  9.76137848e-01
  4.39969333e+00 -6.75637877e+00  9.76137848e-01  4.39969333e+00 -6.75637877e+00
  3.47574373e+00  7.71278399e+00 -4.56212490e+00  3.47574373e+00  7.71278399e+00
 -4.56212490e+00  1.75886403e+00  4.24341405e+00  2.57505784e+00  1.75886403e+00
  4.24341405e+00  2.57505784e+00 -3.29871490e-02 -2.35067072e+00  2.45512733e-01
 -3.29871490e-02 -2.35067072e+00  2.45512733e-01 -3.29871490e-02 -2.35067072e+00
  2.45512733e-01 -3.29871490e-02 -2.35067072e+00  2.45512733e-01 -3.29871490e-02
 -2.35067072e+00  2.45512733e-01 -3.29871490e-02 -2.35067072e+00  2.45512733e-01
 -3.29871490e-02 -2.35067072e+00  2.45512733e-01 -3.29871490e-02 -2.35067072e+00
  2.45512733e-01 -4.09226521e+00  4.72711762e-01  4.98631443e-01 -4.09226521e+00
  4.72711762e-01  4.98631443e-01 -4.09226521e+00  4.72711762e-01  4.98631443e-01
 -4.09226521e+00  4.72711762e-01  4.98631443e-01 -4.09226521e+00  4.72711762e-01
  4.98631443e-01 -4.09226521e+00  4.72711762e-01  4.98631443e-01 -4.09226521e+00
  4.72711762e-01  4.98631443e-01 -4.09226521e+00  4.72711762e-01  4.98631443e-01
 -7.48211834e-01  6.96877475e-01  2.84648617e+00 -7.48211834e-01  6.96877475e-01
  2.84648617e+00 -5.59449770e+00  3.52706643e-01  2.97829088e+00 -5.59449770e+00
  3.52706643e-01  2.97829088e+00 -5.59449770e+00  3.52706643e-01  2.97829088e+00
 -5.59449770e+00  3.52706643e-01  2.97829088e+00 -5.59449770e+00  3.52706643e-01
  2.97829088e+00 -5.59449770e+00  3.52706643e-01  2.97829088e+00 -5.59449770e+00
  3.52706643e-01  2.97829088e+00 -5.59449770e+00  3.52706643e-01  2.97829088e+00
 -4.73418751e+00 -1.02670373e+00 -7.86476467e-01 -4.73418751e+00 -1.02670373e+00
 -7.86476467e-01 -4.55776826e+00  2.25765127e+00 -4.43497591e-01 -4.55776826e+00
  2.25765127e+00 -4.43497591e-01 -5.25365046e+00 -1.40320706e+00  4.02095450e+00
 -5.25365046e+00 -1.40320706e+00  4.02095450e+00 -7.63130777e+00  4.82301948e-01
  2.61415661e+00 -7.63130777e+00  4.82301948e-01  2.61415661e+00 -5.07970904e+00
  1.92963270e+00  4.22313674e+00 -5.07970904e+00  1.92963270e+00  4.22313674e+00
  2.84343235e+00 -2.40876242e+00  6.41800115e-01  2.84343235e+00 -2.40876242e+00
  6.41800115e-01  2.84343235e+00 -2.40876242e+00  6.41800115e-01  2.84343235e+00
 -2.40876242e+00  6.41800115e-01  2.84343235e+00 -2.40876242e+00  6.41800115e-01
  2.84343235e+00 -2.40876242e+00  6.41800115e-01  2.84343235e+00 -2.40876242e+00
  6.41800115e-01  2.84343235e+00 -2.40876242e+00  6.41800115e-01  3.32102101e+00
 -1.90793571e+00  2.60009648e+00  3.32102101e+00 -1.90793571e+00  2.60009648e+00
  3.81127723e+00 -1.07240120e+00 -6.04192918e-01  3.81127723e+00 -1.07240120e+00
 -6.04192918e-01  3.58401720e+00 -4.30594081e+00  2.89983003e-01  3.58401720e+00
 -4.30594081e+00  2.89983003e-01 -1.31334686e+00 -4.43140692e+00  1.83913598e+00
 -1.31334686e+00 -4.43140692e+00  1.83913598e+00 -1.31334686e+00 -4.43140692e+00
  1.83913598e+00 -1.31334686e+00 -4.43140692e+00  1.83913598e+00 -1.31334686e+00
 -4.43140692e+00  1.83913598e+00 -1.31334686e+00 -4.43140692e+00  1.83913598e+00
 -1.31334686e+00 -4.43140692e+00  1.83913598e+00 -1.31334686e+00 -4.43140692e+00
  1.83913598e+00 -4.24973921e-01 -2.72552415e+00 -1.76089752e+00 -4.24973921e-01
 -2.72552415e+00 -1.76089752e+00 -3.32847962e-01 -6.98665975e+00  1.39187791e+00