Generated by Psi4
     FORCE                           RHF                       TESTBAS
Number of atoms                            I               40
Charge                                     I                0
Multiplicity                               I                1
Number of electrons                        I              136
Number of alpha electrons                  I               68
Number of beta electrons                   I               68
Number of basis functions                  I              373
Number of independent functions            I              373
Atomic numbers                             I   N=          40
           6           6           6           6           6           6
           6           6           6           6          16           1
           1           1           1           1           1           1
           1           1           1           7           6           6
           6           1           1           1           1           6
           6           1           1           1           1           1
           1           1           1           1
Nuclear charges                            R   N=          40
  6.00000000e+00  6.00000000e+00  6.00000000e+00  6.00000000e+00  6.00000000e+00
  6.00000000e+00  6.00000000e+00  6.00000000e+00  6.00000000e+00  6.00000000e+00
  1.60000000e+01  1.00000000e+00  1.00000000e+00  1.00000000e+00  1.00000000e+00
  1.00000000e+00  1.00000000e+00  1.00000000e+00  1.00000000e+00  1.00000000e+00
  1.00000000e+00  7.00000000e+00  6.00000000e+00  6.00000000e+00  6.00000000e+00
  1.00000000e+00  1.00000000e+00  1.00000000e+00  1.00000000e+00  6.00000000e+00
  6.00000000e+00  1.00000000e+00  1.00000000e+00  1.00000000e+00  1.00000000e+00
  1.00000000e+00  1.00000000e+00  1.00000000e+00  1.00000000e+00  1.00000000e+00
Current cartesian coordinates              R   N=         120
 -6.56131885e+00 -1.17230298e+00 -1.62736584e+00 -5.16611556e+00 -2.80008247e+00
  3.28941731e-01 -2.39515450e+00 -3.22517075e+00 -4.26912616e-01 -8.96606620e-01
 -7.12970992e-01 -7.77178854e-01  3.31723536e+00 -3.31231740e+00 -9.44259371e-01
  1.79207723e+00 -1.33044605e+00 -1.66080023e+00  5.78637281e+00 -3.26207046e+00
 -2.03662173e+00  6.14616081e+00 -1.22942729e+00 -3.59456292e+00 -5.12285021e+00
  1.29001280e+00 -2.16676221e+00 -2.35448436e+00  7.64082997e-01 -2.86318551e+00
  3.46407762e+00  6.44489091e-01 -3.74380661e+00 -6.03094461e+00  2.32095299e+00
 -3.72243446e+00 -5.19887403e+00  2.51784071e+00 -4.98670899e-01 -2.32093512e+00
 -4.22244990e+00 -2.24458223e+00 -1.47443965e+00 -4.48190634e+00  9.31413391e-01
 -6.75142620e+00 -2.24989513e+00 -3.39730913e+00 -8.48796914e+00 -7.56188582e-01
 -9.78624742e-01 -6.10584152e+00 -4.64053126e+00  5.25253420e-01 -5.24713151e+00
 -1.87705988e+00  2.18309981e+00 -2.28970925e+00 -3.98411724e-01 -4.58059292e+00
 -1.39842858e+00  2.53190683e+00 -3.35584298e+00 -9.18365008e-01  7.65937407e-01
  1.64289535e+00  3.83722004e-01  3.57614877e+00  6.27242753e+00 -5.29926253e-01
  4.88150980e+00  3.85444211e+00  1.52022561e-01  3.32755757e+00  1.50226344e+00
  3.07189198e-01  6.77238518e+00  3.67703077e+00 -2.59086234e+00  5.12499095e+00
  3.92528085e+00  2.23403254e+00  3.27141719e+00  1.30136127e+00 -5.85740491e-01
  4.29505319e+00 -1.63226902e-01  1.10303150e-01 -5.49726976e-01  3.86236054e+00
 -5.64004563e-01  8.40548459e-01  6.31770665e+00  2.19057391e+00 -7.43589741e-01
  3.73145878e+00 -6.68323196e-01 -2.45774122e+00  3.95642822e+00  2.51303509e-01
 -1.94815386e-01  7.92134522e+00 -2.62657214e+00  8.18612951e-01  6.55678523e+00
 -2.54133218e-01  4.60697630e+00  7.95607017e+00  2.46309926e+00  3.58522248e+00
  6.31491425e+00  2.69991083e+00 -4.79543915e+00  3.28244171e-01  7.22026542e+00
 -4.68459742e+00 -1.67985678e+00  7.81208176e+00 -7.26301243e-01 -4.66973100e+00
Integer atomic weights                     I   N=          40
          12          12          12          12          12          12
          12          12          12          12          31           1
           1           1           1           1           1           1
           1           1           1          14          12          12
          12           1           1           1           1          12
          12           1           1           1           1           1
           1           1           1           1
Real atomic weights                        R   N=          40
  1.20000000e+01  1.20000000e+01  1.20000000e+01  1.20000000e+01  1.20000000e+01
  1.20000000e+01  1.20000000e+01  1.20000000e+01  1.20000000e+01  1.20000000e+01
  3.19720712e+01  1.00782503e+00  1.00782503e+00  1.00782503e+00  1.00782503e+00
  1.00782503e+00  1.00782503e+00  1.00782503e+00  1.00782503e+00  1.00782503e+00
  1.00782503e+00  1.40030740e+01  1.20000000e+01  1.20000000e+01  1.20000000e+01
  1.00782503e+00  1.00782503e+00  1.00782503e+00  1.00782503e+00  1.20000000e+01
  1.20000000e+01  1.00782503e+00  1.00782503e+00  1.00782503e+00  1.00782503e+00
  1.00782503e+00  1.00782503e+00  1.00782503e+00  1.00782503e+00  1.00782503e+00
Number of primitive shells                 I              393
Number of contracted shells                I              184
Pure/Cartesian d shells                    I                1
Pure/Cartesian f shells                    I                1
Highest angular momentum                   I                2
Largest degree of contraction              I                6
Shell types                                I   N=         184
           0           0           1           0           1           2
           0           1           0           0           1           0
           1           2           0           1           0           0
           1           0           1           2           0           1
           0           0           1           0           1           2
           0           1           0           0           1           0
           1           2           0           1           0           0
           1           0           1           2           0           1
           0           0           1           0           1           2
           0           1           0           0           1           0
           1           2           0           1           0           0
           1           0           1           2           0           1
           0           0           1           0           1           2
           0           1           0           0           1           0
           1           0           1           2           0           1
           0           0           0           0           0           0
           0           0           0           0           0           0
           0           0           0           0           0           0
           0           0           0           0           1           0
           1           2           0           1           0           0
           1           0           1           2           0           1
           0           0           1           0           1           2
           0           1           0           0           1           0
           1           2           0           1           0           0
           0           0           0           0           0           0
           0           0           1           0           1           2
           0           1           0           0           1           0
           1           2           0           1           0           0
           0           0           0           0           0           0
           0           0           0           0           0           0
           0           0           0           0
Number of primitives per shell             I   N=         184
           6           3           3           1           1           1
           1           1           6           3           3           1
           1           1           1           1           6           3
           3           1           1           1           1           1
           6           3           3           1           1           1
           1           1           6           3           3           1
           1           1           1           1           6           3
           3           1           1           1           1           1
           6           3           3           1           1           1
           1           1           6           3           3           1
           1           1           1           1           6           3
           3           1           1           1           1           1
           6           3           3           1           1           1
           1           1           6           6           6           3
           3           1           1           1           1           1
           3           1           3           1           3           1
           3           1           3           1           3           1
           3           1           3           1           3           1
           3           1           6           3           3           1
           1           1           1           1           6           3
           3           1           1           1           1           1
           6           3           3           1           1           1
           1           1           6           3           3           1
           1           1           1           1           3           1
           3           1           3           1           3           1
           6           3           3           1           1           1
           1           1           6           3           3           1
           1           1           1           1           3           1
           3           1           3           1           3           1
           3           1           3           1           3           1
           3           1           3           1
Shell to atom map                          I   N=         184
           1           1           1           1           1           1
           1           1           2           2           2           2
           2           2           2           2           3           3
           3           3           3           3           3           3
           4           4           4           4           4           4
           4           4           5           5           5           5
           5           5           5           5           6           6
           6           6           6           6           6           6
           7           7           7           7           7           7
           7           7           8           8           8           8
           8           8           8           8           9           9
           9           9           9           9           9           9
          10          10          10          10          10          10
          10          10          11          11          11          11
          11          11          11          11          11          11
          12          12          13          13          14          14
          15          15          16          16          17          17
          18          18          19          19          20          20
          21          21          22          22          22          22
          22          22          22          22          23          23
          23          23          23          23          23          23
          24          24          24          24          24          24
          24          24          25          25          25          25
          25          25          25          25          26          26
          27          27          28          28          29          29
          30          30          30          30          30          30
          30          30          31          31          31          31
          31          31          31          31          32          32
          33          33          34          34          35          35
          36          36          37          37          38          38
          39          39          40          40
Primitive exponents                        R   N=         393
  3.04752490e+03  4.57369510e+02  1.03948690e+02  2.92101550e+01  9.28666300e+00
  3.16392700e+00  7.86827240e+00  1.88128850e+00  5.44249300e-01  7.86827240e+00
  1.88128850e+00  5.44249300e-01  1.68714400e-01  1.68714400e-01  8.00000000e-01
  4.38000000e-02  4.38000000e-02  3.04752490e+03  4.57369510e+02  1.03948690e+02
  2.92101550e+01  9.28666300e+00  3.16392700e+00  7.86827240e+00  1.88128850e+00
  5.44249300e-01  7.86827240e+00  1.88128850e+00  5.44249300e-01  1.68714400e-01
  1.68714400e-01  8.00000000e-01  4.38000000e-02  4.38000000e-02  3.04752490e+03
  4.57369510e+02  1.03948690e+02  2.92101550e+01  9.28666300e+00  3.16392700e+00
  7.86827240e+00  1.88128850e+00  5.44249300e-01  7.86827240e+00  1.88128850e+00
  5.44249300e-01  1.68714400e-01  1.68714400e-01  8.00000000e-01  4.38000000e-02
  4.38000000e-02  3.04752490e+03  4.57369510e+02  1.03948690e+02  2.92101550e+01
  9.28666300e+00  3.16392700e+00  7.86827240e+00  1.88128850e+00  5.44249300e-01
  7.86827240e+00  1.88128850e+00  5.44249300e-01  1.68714400e-01  1.68714400e-01
  8.00000000e-01  4.38000000e-02  4.38000000e-02  3.04752490e+03  4.57369510e+02
  1.03948690e+02  2.92101550e+01  9.28666300e+00  3.16392700e+00  7.86827240e+00
  1.88128850e+00  5.44249300e-01  7.86827240e+00  1.88128850e+00  5.44249300e-01
  1.68714400e-01  1.68714400e-01  8.00000000e-01  4.38000000e-02  4.38000000e-02
  3.04752490e+03  4.57369510e+02  1.03948690e+02  2.92101550e+01  9.28666300e+00
  3.16392700e+00  7.86827240e+00  1.88128850e+00  5.44249300e-01  7.86827240e+00
  1.88128850e+00  5.44249300e-01  1.68714400e-01  1.68714400e-01  8.00000000e-01
  4.38000000e-02  4.38000000e-02  3.04752490e+03  4.57369510e+02  1.03948690e+02
  2.92101550e+01  9.28666300e+00  3.16392700e+00  7.86827240e+00  1.88128850e+00
  5.44249300e-01  7.86827240e+00  1.88128850e+00  5.44249300e-01  1.68714400e-01
  1.68714400e-01  8.00000000e-01  4.38000000e-02  4.38000000e-02  3.04752490e+03
  4.57369510e+02  1.03948690e+02  2.92101550e+01  9.28666300e+00  3.16392700e+00
  7.86827240e+00  1.88128850e+00  5.44249300e-01  7.86827240e+00  1.88128850e+00
  5.44249300e-01  1.68714400e-01  1.68714400e-01  8.00000000e-01  4.38000000e-02
  4.38000000e-02  3.04752490e+03  4.57369510e+02  1.03948690e+02  2.92101550e+01
  9.28666300e+00  3.16392700e+00  7.86827240e+00  1.88128850e+00  5.44249300e-01
  7.86827240e+00  1.88128850e+00  5.44249300e-01  1.68714400e-01  1.68714400e-01
  8.00000000e-01  4.38000000e-02  4.38000000e-02  3.04752490e+03  4.57369510e+02
  1.03948690e+02  2.92101550e+01  9.28666300e+00  3.16392700e+00  7.86827240e+00
  1.88128850e+00  5.44249300e-01  7.86827240e+00  1.88128850e+00  5.44249300e-01
  1.68714400e-01  1.68714400e-01  8.00000000e-01  4.38000000e-02  4.38000000e-02
  2.19171000e+04  3.30149000e+03  7.54146000e+02  2.12711000e+02  6.79896000e+01
  2.30515000e+01  4.23735000e+02  1.00710000e+02  3.21599000e+01  1.18079000e+01
  4.63110000e+00  1.87025000e+00  4.23735000e+02  1.00710000e+02  3.21599000e+01
  1.18079000e+01  4.63110000e+00  1.87025000e+00  2.61584000e+00  9.22167000e-01
  3.41287000e-01  2.61584000e+00  9.22167000e-01  3.41287000e-01  1.17167000e-01
  1.17167000e-01  6.50000000e-01  4.05000000e-02  4.05000000e-02  1.87311370e+01
  2.82539370e+00  6.40121700e-01  1.61277800e-01  1.87311370e+01  2.82539370e+00
  6.40121700e-01  1.61277800e-01  1.87311370e+01  2.82539370e+00  6.40121700e-01
  1.61277800e-01  1.87311370e+01  2.82539370e+00  6.40121700e-01  1.61277800e-01
  1.87311370e+01  2.82539370e+00  6.40121700e-01  1.61277800e-01  1.87311370e+01
  2.82539370e+00  6.40121700e-01  1.61277800e-01  1.87311370e+01  2.82539370e+00
  6.40121700e-01  1.61277800e-01  1.87311370e+01  2.82539370e+00  6.40121700e-01
  1.61277800e-01  1.87311370e+01  2.82539370e+00  6.40121700e-01  1.61277800e-01
  1.87311370e+01  2.82539370e+00  6.40121700e-01  1.61277800e-01  4.17351100e+03
  6.27457900e+02  1.42902100e+02  4.02343300e+01  1.28202100e+01  4.39043700e+00
  1.16263580e+01  2.71628000e+00  7.72218000e-01  1.16263580e+01  2.71628000e+00
  7.72218000e-01  2.12031300e-01  2.12031300e-01  8.00000000e-01  6.39000000e-02
  6.39000000e-02  3.04752490e+03  4.57369510e+02  1.03948690e+02  2.92101550e+01
  9.28666300e+00  3.16392700e+00  7.86827240e+00  1.88128850e+00  5.44249300e-01
  7.86827240e+00  1.88128850e+00  5.44249300e-01  1.68714400e-01  1.68714400e-01
  8.00000000e-01  4.38000000e-02  4.38000000e-02  3.04752490e+03  4.57369510e+02
  1.03948690e+02  2.92101550e+01  9.28666300e+00  3.16392700e+00  7.86827240e+00
  1.88128850e+00  5.44249300e-01  7.86827240e+00  1.88128850e+00  5.44249300e-01
  1.68714400e-01  1.68714400e-01  8.00000000e-01  4.38000000e-02  4.38000000e-02
  3.04752490e+03  4.57369510e+02  1.03948690e+02  2.92101550e+01  9.28666300e+00
  3.16392700e+00  7.86827240e+00  1.88128850e+00  5.44249300e-01  7.86827240e+00
  1.88128850e+00  5.44249300e-01  1.68714400e-01  1.68714400e-01  8.00000000e-01
  4.38000000e-02  4.38000000e-02  1.87311370e+01  2.82539370e+00  6.40121700e-01
  1.61277800e-01  1.87311370e+01  2.82539370e+00  6.40121700e-01  1.61277800e-01
  1.87311370e+01  2.82539370e+00  6.40121700e-01  1.61277800e-01  1.87311370e+01
  2.82539370e+00  6.40121700e-01  1.61277800e-01  3.04752490e+03  4.57369510e+02
  1.03948690e+02  2.92101550e+01  9.28666300e+00  3.16392700e+00  7.86827240e+00
  1.88128850e+00  5.44249300e-01  7.86827240e+00  1.88128850e+00  5.44249300e-01
  1.68714400e-01  1.68714400e-01  8.00000000e-01  4.38000000e-02  4.38000000e-02
  3.04752490e+03  4.57369510e+02  1.03948690e+02  2.92101550e+01  9.28666300e+00
  3.16392700e+00  7.86827240e+00  1.88128850e+00  5.44249300e-01  7.86827240e+00
  1.88128850e+00  5.44249300e-01  1.68714400e-01  1.68714400e-01  8.00000000e-01
  4.38000000e-02  4.38000000e-02  1.87311370e+01  2.82539370e+00  6.40121700e-01
  1.61277800e-01  1.87311370e+01  2.82539370e+00  6.40121700e-01  1.61277800e-01
  1.87311370e+01  2.82539370e+00  6.40121700e-01  1.61277800e-01  1.87311370e+01
  2.82539370e+00  6.40121700e-01  1.61277800e-01  1.87311370e+01  2.82539370e+00
  6.40121700e-01  1.61277800e-01  1.87311370e+01  2.82539370e+00  6.40121700e-01
  1.61277800e-01  1.87311370e+01  2.82539370e+00  6.40121700e-01  1.61277800e-01
  1.87311370e+01  2.82539370e+00  6.40121700e-01  1.61277800e-01  1.87311370e+01
  2.82539370e+00  6.40121700e-01  1.61277800e-01
Contraction coefficients                   R   N=         393
  1.83470016e-03  1.40373012e-02  6.88426061e-02  2.32184421e-01  4.67941342e-01
  3.62312032e-01 -1.19332409e-01 -1.60854212e-01  1.14345648e+00  6.89990956e-02
  3.16423980e-01  7.44308252e-01  1.00000000e+00  1.00000000e+00  1.00000000e+00
  1.00000000e+00  1.00000000e+00  1.83470016e-03  1.40373012e-02  6.88426061e-02
  2.32184421e-01  4.67941342e-01  3.62312032e-01 -1.19332409e-01 -1.60854212e-01
  1.14345648e+00  6.89990956e-02  3.16423980e-01  7.44308252e-01  1.00000000e+00
  1.00000000e+00  1.00000000e+00  1.00000000e+00  1.00000000e+00  1.83470016e-03
  1.40373012e-02  6.88426061e-02  2.32184421e-01  4.67941342e-01  3.62312032e-01
 -1.19332409e-01 -1.60854212e-01  1.14345648e+00  6.89990956e-02  3.16423980e-01
  7.44308252e-01  1.00000000e+00  1.00000000e+00  1.00000000e+00  1.00000000e+00
  1.00000000e+00  1.83470016e-03  1.40373012e-02  6.88426061e-02  2.32184421e-01
  4.67941342e-01  3.62312032e-01 -1.19332409e-01 -1.60854212e-01  1.14345648e+00
  6.89990956e-02  3.16423980e-01  7.44308252e-01  1.00000000e+00  1.00000000e+00
  1.00000000e+00  1.00000000e+00  1.00000000e+00  1.83470016e-03  1.40373012e-02
  6.88426061e-02  2.32184421e-01  4.67941342e-01  3.62312032e-01 -1.19332409e-01
 -1.60854212e-01  1.14345648e+00  6.89990956e-02  3.16423980e-01  7.44308252e-01
  1.00000000e+00  1.00000000e+00  1.00000000e+00  1.00000000e+00  1.00000000e+00
  1.83470016e-03  1.40373012e-02  6.88426061e-02  2.32184421e-01  4.67941342e-01
  3.62312032e-01 -1.19332409e-01 -1.60854212e-01  1.14345648e+00  6.89990956e-02
  3.16423980e-01  7.44308252e-01  1.00000000e+00  1.00000000e+00  1.00000000e+00
  1.00000000e+00  1.00000000e+00  1.83470016e-03  1.40373012e-02  6.88426061e-02
  2.32184421e-01  4.67941342e-01  3.62312032e-01 -1.19332409e-01 -1.60854212e-01
  1.14345648e+00  6.89990956e-02  3.16423980e-01  7.44308252e-01  1.00000000e+00
  1.00000000e+00  1.00000000e+00  1.00000000e+00  1.00000000e+00  1.83470016e-03
  1.40373012e-02  6.88426061e-02  2.32184421e-01  4.67941342e-01  3.62312032e-01
 -1.19332409e-01 -1.60854212e-01  1.14345648e+00  6.89990956e-02  3.16423980e-01
  7.44308252e-01  1.00000000e+00  1.00000000e+00  1.00000000e+00  1.00000000e+00
  1.00000000e+00  1.83470016e-03  1.40373012e-02  6.88426061e-02  2.32184421e-01
  4.67941342e-01  3.62312032e-01 -1.19332409e-01 -1.60854212e-01  1.14345648e+00
  6.89990956e-02  3.16423980e-01  7.44308252e-01  1.00000000e+00  1.00000000e+00
  1.00000000e+00  1.00000000e+00  1.00000000e+00  1.83470016e-03  1.40373012e-02
  6.88426061e-02  2.32184421e-01  4.67941342e-01  3.62312032e-01 -1.19332409e-01
 -1.60854212e-01  1.14345648e+00  6.89990956e-02  3.16423980e-01  7.44308252e-01
  1.00000000e+00  1.00000000e+00  1.00000000e+00  1.00000000e+00  1.00000000e+00
  1.86900121e-03  1.42300092e-02  6.96960451e-02  2.38487154e-01  4.83307312e-01
  3.38074219e-01 -2.37670050e-03 -3.16930066e-02 -1.13317024e-01  5.60900117e-02
  5.92255123e-01  4.55006095e-01  4.06100032e-03  3.06810024e-02  1.30452010e-01
  3.27205026e-01  4.52851036e-01  2.56042020e-01 -2.50373114e-01  6.69567631e-02
  1.05450627e+00 -1.45109929e-02  3.10262847e-01  7.54482628e-01  1.00000000e+00
  1.00000000e+00  1.00000000e+00  1.00000000e+00  1.00000000e+00  3.34945995e-02
  2.34726947e-01  8.13757318e-01  1.00000000e+00  3.34945995e-02  2.34726947e-01
  8.13757318e-01  1.00000000e+00  3.34945995e-02  2.34726947e-01  8.13757318e-01
  1.00000000e+00  3.34945995e-02  2.34726947e-01  8.13757318e-01  1.00000000e+00
  3.34945995e-02  2.34726947e-01  8.13757318e-01  1.00000000e+00  3.34945995e-02
  2.34726947e-01  8.13757318e-01  1.00000000e+00  3.34945995e-02  2.34726947e-01
  8.13757318e-01  1.00000000e+00  3.34945995e-02  2.34726947e-01  8.13757318e-01
  1.00000000e+00  3.34945995e-02  2.34726947e-01  8.13757318e-01  1.00000000e+00
  3.34945995e-02  2.34726947e-01  8.13757318e-01  1.00000000e+00  1.83479944e-03
  1.39949958e-02  6.85869792e-02  2.32240930e-01  4.69069858e-01  3.60454891e-01
 -1.14961023e-01 -1.69118034e-01  1.14585223e+00  6.75800232e-02  3.23907111e-01
  7.40895255e-01  1.00000000e+00  1.00000000e+00  1.00000000e+00  1.00000000e+00
  1.00000000e+00  1.83470016e-03  1.40373012e-02  6.88426061e-02  2.32184421e-01
  4.67941342e-01  3.62312032e-01 -1.19332409e-01 -1.60854212e-01  1.14345648e+00
  6.89990956e-02  3.16423980e-01  7.44308252e-01  1.00000000e+00  1.00000000e+00
  1.00000000e+00  1.00000000e+00  1.00000000e+00  1.83470016e-03  1.40373012e-02
  6.88426061e-02  2.32184421e-01  4.67941342e-01  3.62312032e-01 -1.19332409e-01
 -1.60854212e-01  1.14345648e+00  6.89990956e-02  3.16423980e-01  7.44308252e-01
  1.00000000e+00  1.00000000e+00  1.00000000e+00  1.00000000e+00  1.00000000e+00
  1.83470016e-03  1.40373012e-02  6.88426061e-02  2.32184421e-01  4.67941342e-01
  3.62312032e-01 -1.19332409e-01 -1.60854212e-01  1.14345648e+00  6.89990956e-02
  3.16423980e-01  7.44308252e-01  1.00000000e+00  1.00000000e+00  1.00000000e+00
  1.00000000e+00  1.00000000e+00  3.34945995e-02  2.34726947e-01  8.13757318e-01
  1.00000000e+00  3.34945995e-02  2.34726947e-01  8.13757318e-01  1.00000000e+00
  3.34945995e-02  2.34726947e-01  8.13757318e-01  1.00000000e+00  3.34945995e-02
  2.34726947e-01  8.13757318e-01  1.00000000e+00  1.83470016e-03  1.40373012e-02
  6.88426061e-02  2.32184421e-01  4.67941342e-01  3.62312032e-01 -1.19332409e-01
 -1.60854212e-01  1.14345648e+00  6.89990956e-02  3.16423980e-01  7.44308252e-01
  1.00000000e+00  1.00000000e+00  1.00000000e+00  1.00000000e+00  1.00000000e+00
  1.83470016e-03  1.40373012e-02  6.88426061e-02  2.32184421e-01  4.67941342e-01
  3.62312032e-01 -1.19332409e-01 -1.60854212e-01  1.14345648e+00  6.89990956e-02
  3.16423980e-01  7.44308252e-01  1.00000000e+00  1.00000000e+00  1.00000000e+00
  1.00000000e+00  1.00000000e+00  3.34945995e-02  2.34726947e-01  8.13757318e-01
  1.00000000e+00  3.34945995e-02  2.34726947e-01  8.13757318e-01  1.00000000e+00
  3.34945995e-02  2.34726947e-01  8.13757318e-01  1.00000000e+00  3.34945995e-02
  2.34726947e-01  8.13757318e-01  1.00000000e+00  3.34945995e-02  2.34726947e-01
  8.13757318e-01  1.00000000e+00  3.34945995e-02  2.34726947e-01  8.13757318e-01
  1.00000000e+00  3.34945995e-02  2.34726947e-01  8.13757318e-01  1.00000000e+00
  3.34945995e-02  2.34726947e-01  8.13757318e-01  1.00000000e+00  3.34945995e-02
  2.34726947e-01  8.13757318e-01  1.00000000e+00
Coordinates of each shell                  R   N=         552
 -6.56131885e+00 -1.17230298e+00 -1.62736584e+00 -6.56131885e+00 -1.17230298e+00
 -1.62736584e+00 -6.56131885e+00 -1.17230298e+00 -1.62736584e+00 -6.56131885e+00
 -1.17230298e+00 -1.62736584e+00 -6.56131885e+00 -1.17230298e+00 -1.62736584e+00
 -6.56131885e+00 -1.17230298e+00 -1.62736584e+00 -6.56131885e+00 -1.17230298e+00
 -1.62736584e+00 -6.56131885e+00 -1.17230298e+00 -1.62736584e+00 -5.16611556e+00
 -2.80008247e+00  3.28941731e-01 -5.16611556e+00 -2.80008247e+00  3.28941731e-01
 -5.16611556e+00 -2.80008247e+00  3.28941731e-01 -5.16611556e+00 -2.80008247e+00
  3.28941731e-01 -5.16611556e+00 -2.80008247e+00  3.28941731e-01 -5.16611556e+00
 -2.80008247e+00  3.28941731e-01 -5.16611556e+00 -2.80008247e+00  3.28941731e-01
 -5.16611556e+00 -2.80008247e+00  3.28941731e-01 -2.39515450e+00 -3.22517075e+00
 -4.26912616e-01 -2.39515450e+00 -3.22517075e+00 -4.26912616e-01 -2.39515450e+00
 -3.22517075e+00 -4.26912616e-01 -2.39515450e+00 -3.22517075e+00 -4.26912616e-01
 -2.39515450e+00 -3.22517075e+00 -4.26912616e-01 -2.39515450e+00 -3.22517075e+00
 -4.26912616e-01 -2.39515450e+00 -3.22517075e+00 -4.26912616e-01 -2.39515450e+00
 -3.22517075e+00 -4.26912616e-01 -8.96606620e-01 -7.12970992e-01 -7.77178854e-01
 -8.96606620e-01 -7.12970992e-01 -7.77178854e-01 -8.96606620e-01 -7.12970992e-01
 -7.77178854e-01 -8.96606620e-01 -7.12970992e-01 -7.77178854e-01 -8.96606620e-01
 -7.12970992e-01 -7.77178854e-01 -8.96606620e-01 -7.12970992e-01 -7.77178854e-01
 -8.96606620e-01 -7.12970992e-01 -7.77178854e-01 -8.96606620e-01 -7.12970992e-01
 -7.77178854e-01  3.31723536e+00 -3.31231740e+00 -9.44259371e-01  3.31723536e+00
 -3.31231740e+00 -9.44259371e-01  3.31723536e+00 -3.31231740e+00 -9.44259371e-01
  3.31723536e+00 -3.31231740e+00 -9.44259371e-01  3.31723536e+00 -3.31231740e+00
 -9.44259371e-01  3.31723536e+00 -3.31231740e+00 -9.44259371e-01  3.31723536e+00
 -3.31231740e+00 -9.44259371e-01  3.31723536e+00 -3.31231740e+00 -9.44259371e-01
  1.79207723e+00 -1.33044605e+00 -1.66080023e+00  1.79207723e+00 -1.33044605e+00
 -1.66080023e+00  1.79207723e+00 -1.33044605e+00 -1.66080023e+00  1.79207723e+00
 -1.33044605e+00 -1.66080023e+00  1.79207723e+00 -1.33044605e+00 -1.66080023e+00
  1.79207723e+00 -1.33044605e+00 -1.66080023e+00  1.79207723e+00 -1.33044605e+00
 -1.66080023e+00  1.79207723e+00 -1.33044605e+00 -1.66080023e+00  5.78637281e+00
 -3.26207046e+00 -2.03662173e+00  5.78637281e+00 -3.26207046e+00 -2.03662173e+00
  5.78637281e+00 -3.26207046e+00 -2.03662173e+00  5.78637281e+00 -3.26207046e+00
 -2.03662173e+00  5.78637281e+00 -3.26207046e+00 -2.03662173e+00  5.78637281e+00
 -3.26207046e+00 -2.03662173e+00  5.78637281e+00 -3.26207046e+00 -2.03662173e+00
  5.78637281e+00 -3.26207046e+00 -2.03662173e+00  6.14616081e+00 -1.22942729e+00
 -3.59456292e+00  6.14616081e+00 -1.22942729e+00 -3.59456292e+00  6.14616081e+00
 -1.22942729e+00 -3.59456292e+00  6.14616081e+00 -1.22942729e+00 -3.59456292e+00
  6.14616081e+00 -1.22942729e+00 -3.59456292e+00  6.14616081e+00 -1.22942729e+00
 -3.59456292e+00  6.14616081e+00 -1.22942729e+00 -3.59456292e+00  6.14616081e+00
 -1.22942729e+00 -3.59456292e+00 -5.12285021e+00  1.29001280e+00 -2.16676221e+00
 -5.12285021e+00  1.29001280e+00 -2.16676221e+00 -5.12285021e+00  1.29001280e+00
 -2.16676221e+00 -5.12285021e+00  1.29001280e+00 -2.16676221e+00 -5.12285021e+00
  1.29001280e+00 -2.16676221e+00 -5.12285021e+00  1.29001280e+00 -2.16676221e+00
 -5.12285021e+00  1.29001280e+00 -2.16676221e+00 -5.12285021e+00  1.29001280e+00
 -2.16676221e+00 -2.35448436e+00  7.64082997e-01 -2.86318551e+00 -2.35448436e+00
  7.64082997e-01 -2.86318551e+00 -2.35448436e+00  7.64082997e-01 -2.86318551e+00
 -2.35448436e+00  7.64082997e-01 -2.86318551e+00 -2.35448436e+00  7.64082997e-01
 -2.86318551e+00 -2.35448436e+00  7.64082997e-01 -2.86318551e+00 -2.35448436e+00
  7.64082997e-01 -2.86318551e+00 -2.35448436e+00  7.64082997e-01 -2.86318551e+00
  3.46407762e+00  6.44489091e-01 -3.74380661e+00  3.46407762e+00  6.44489091e-01
 -3.74380661e+00  3.46407762e+00  6.44489091e-01 -3.74380661e+00  3.46407762e+00
  6.44489091e-01 -3.74380661e+00  3.46407762e+00  6.44489091e-01 -3.74380661e+00
  3.46407762e+00  6.44489091e-01 -3.74380661e+00  3.46407762e+00  6.44489091e-01
 -3.74380661e+00  3.46407762e+00  6.44489091e-01 -3.74380661e+00  3.46407762e+00
  6.44489091e-01 -3.74380661e+00  3.46407762e+00  6.44489091e-01 -3.74380661e+00
 -6.03094461e+00  2.32095299e+00 -3.72243446e+00 -6.03094461e+00  2.32095299e+00
 -3.72243446e+00 -5.19887403e+00  2.51784071e+00 -4.98670899e-01 -5.19887403e+00
  2.51784071e+00 -4.98670899e-01 -2.32093512e+00 -4.22244990e+00 -2.24458223e+00