Generated by Psi4
     FORCE                           RHF                       TESTBAS
Number of atoms                            I               29
Charge                                     I                0
Multiplicity                               I                1
Number of electrons                        I              120
Number of alpha electrons                  I               60
Number of beta electrons                   I               60
Number of basis functions                  I              330
Number of independent functions            I              330
Atomic numbers                             I   N=          29
           7           6           6           7           6           6
           6           6           6           6           6           6
           1           1           1           1           1           1
           1           1           1           1           1           1
           1           6           9           9           9
Nuclear charges                            R   N=          29
  7.00000000e+00  6.00000000e+00  6.00000000e+00  7.00000000e+00  6.00000000e+00
  6.00000000e+00  6.00000000e+00  6.00000000e+00  6.00000000e+00  6.00000000e+00
  6.00000000e+00  6.00000000e+00  1.00000000e+00  1.00000000e+00  1.00000000e+00
  1.00000000e+00  1.00000000e+00  1.00000000e+00  1.00000000e+00  1.00000000e+00
  1.00000000e+00  1.00000000e+00  1.00000000e+00  1.00000000e+00  1.00000000e+00
  6.00000000e+00  9.00000000e+00  9.00000000e+00  9.00000000e+00
Current cartesian coordinates              R   N=          87
 -7.77317876e+00 -1.87620396e+00  3.95327944e+00 -5.80504881e+00 -8.62336139e-01
  5.63034007e+00 -3.12735144e+00 -1.76223344e+00  4.98014894e+00 -2.53595568e+00
 -1.10571660e+00  2.36124494e+00  2.00115419e+00 -1.55642215e+00  3.06211567e+00
 -6.96977522e-02 -7.44265119e-01  1.57103565e+00  4.47776776e+00 -1.18432355e+00
  2.25785876e+00  5.01310330e+00 -1.80652939e-02 -4.87573862e-02 -6.85067734e+00
 -2.55272898e+00  1.42063281e+00 -4.67157508e+00 -8.30204000e-01  6.24857148e-01
  4.84571263e-01  4.53873484e-01 -7.51302425e-01  2.98338802e+00  7.89200205e-01
 -1.53071442e+00  6.94486837e+00  2.59863787e-01 -6.69917207e-01 -6.24925494e+00
 -1.38199149e+00  7.58409378e+00 -5.83349459e+00  1.21173130e+00  5.54061261e+00
  1.67251970e+00 -2.52288794e+00  4.83857323e+00 -1.02377575e+00  1.17888418e+00
 -1.93010333e+00  6.02027440e+00 -1.83767250e+00  3.44656715e+00 -4.07340085e+00
 -1.39070166e+00 -1.27438326e+00 -5.32792490e+00  1.14395082e+00  5.16270508e-01
 -8.39438346e+00 -2.35131082e+00  5.15775352e-02 -6.18028533e+00 -4.52433552e+00
  1.31584296e+00 -2.94867107e+00 -3.81345901e+00  5.31588767e+00 -1.78548356e+00
 -8.11178771e-01  6.24109126e+00 -8.64564588e+00 -3.38203274e+00  4.76100926e+00
  3.45838883e+00  1.98243418e+00 -4.07025969e+00  5.84882188e+00  2.86900553e+00
 -4.31525528e+00  3.09996088e+00  3.09821010e-01 -5.99860719e+00  1.88035284e+00
  3.95549017e+00 -4.53954272e+00
Integer atomic weights                     I   N=          29
          14          12          12          14          12          12
          12          12          12          12          12          12
           1           1           1           1           1           1
           1           1           1           1           1           1
           1          12          18          18          18
Real atomic weights                        R   N=          29
  1.40030740e+01  1.20000000e+01  1.20000000e+01  1.40030740e+01  1.20000000e+01
  1.20000000e+01  1.20000000e+01  1.20000000e+01  1.20000000e+01  1.20000000e+01
  1.20000000e+01  1.20000000e+01  1.00782503e+00  1.00782503e+00  1.00782503e+00
  1.00782503e+00  1.00782503e+00  1.00782503e+00  1.00782503e+00  1.00782503e+00
  1.00782503e+00  1.00782503e+00  1.00782503e+00  1.00782503e+00  1.00782503e+00
  1.20000000e+01  1.89984032e+01  1.89984032e+01  1.89984032e+01
Number of primitive shells                 I              324
Number of contracted shells                I              154
Pure/Cartesian d shells                    I                1
Pure/Cartesian f shells                    I                1
Highest angular momentum                   I                2
Largest degree of contraction              I                6
Shell types                                I   N=         154
           0           0           1           0           1           2
           0           1           0           0           1           0
           1           2           0           1           0           0
           1           0           1           2           0           1
           0           0           1           0           1           2
           0           1           0           0           1           0
           1           2           0           1           0           0
           1           0           1           2           0           1
           0           0           1           0           1           2
           0           1           0           0           1           0
           1           2           0           1           0           0
           1           0           1           2           0           1
           0           0           1           0           1           2
           0           1           0           0           1           0
           1           2           0           1           0           0
           1           0           1           2           0           1
           0           0           0           0           0           0
           0           0           0           0           0           0
           0           0           0           0           0           0
           0           0           0           0           0           0
           0           0           0           0           1           0
           1           2           0           1           0           0
           1           0           1           2           0           1
           0           0           1           0           1           2
           0           1           0           0           1           0
           1           2           0           1
Number of primitives per shell             I   N=         154
           6           3           3           1           1           1
           1           1           6           3           3           1
           1           1           1           1           6           3
           3           1           1           1           1           1
           6           3           3           1           1           1
           1           1           6           3           3           1
           1           1           1           1           6           3
           3           1           1           1           1           1
           6           3           3           1           1           1
           1           1           6           3           3           1
           1           1           1           1           6           3
           3           1           1           1           1           1
           6           3           3           1           1           1
           1           1           6           3           3           1
           1           1           1           1           6           3
           3           1           1           1           1           1
           3           1           3           1           3           1
           3           1           3           1           3           1
           3           1           3           1           3           1
           3           1           3           1           3           1
           3           1           6           3           3           1
           1           1           1           1           6           3
           3           1           1           1           1           1
           6           3           3           1           1           1
           1           1           6           3           3           1
           1           1           1           1
Shell to atom map                          I   N=         154
           1           1           1           1           1           1
           1           1           2           2           2           2
           2           2           2           2           3           3
           3           3           3           3           3           3
           4           4           4           4           4           4
           4           4           5           5           5           5
           5           5           5           5           6           6
           6           6           6           6           6           6
           7           7           7           7           7           7
           7           7           8           8           8           8
           8           8           8           8           9           9
           9           9           9           9           9           9
          10          10          10          10          10          10
          10          10          11          11          11          11
          11          11          11          11          12          12
          12          12          12          12          12          12
          13          13          14          14          15          15
          16          16          17          17          18          18
          19          19          20          20          21          21
          22          22          23          23          24          24
          25          25          26          26          26          26
          26          26          26          26          27          27
          27          27          27          27          27          27
          28          28          28          28          28          28
          28          28          29          29          29          29
          29          29          29          29
Primitive exponents                        R   N=         324
  4.17351100e+03  6.27457900e+02  1.42902100e+02  4.02343300e+01  1.28202100e+01
  4.39043700e+00  1.16263580e+01  2.71628000e+00  7.72218000e-01  1.16263580e+01
  2.71628000e+00  7.72218000e-01  2.12031300e-01  2.12031300e-01  8.00000000e-01
  6.39000000e-02  6.39000000e-02  3.04752490e+03  4.57369510e+02  1.03948690e+02
  2.92101550e+01  9.28666300e+00  3.16392700e+00  7.86827240e+00  1.88128850e+00
  5.44249300e-01  7.86827240e+00  1.88128850e+00  5.44249300e-01  1.68714400e-01
  1.68714400e-01  8.00000000e-01  4.38000000e-02  4.38000000e-02  3.04752490e+03
  4.57369510e+02  1.03948690e+02  2.92101550e+01  9.28666300e+00  3.16392700e+00
  7.86827240e+00  1.88128850e+00  5.44249300e-01  7.86827240e+00  1.88128850e+00
  5.44249300e-01  1.68714400e-01  1.68714400e-01  8.00000000e-01  4.38000000e-02
  4.38000000e-02  4.17351100e+03  6.27457900e+02  1.42902100e+02  4.02343300e+01
  1.28202100e+01  4.39043700e+00  1.16263580e+01  2.71628000e+00  7.72218000e-01
  1.16263580e+01  2.71628000e+00  7.72218000e-01  2.12031300e-01  2.12031300e-01
  8.00000000e-01  6.39000000e-02  6.39000000e-02  3.04752490e+03  4.57369510e+02
  1.03948690e+02  2.92101550e+01  9.28666300e+00  3.16392700e+00  7.86827240e+00
  1.88128850e+00  5.44249300e-01  7.86827240e+00  1.88128850e+00  5.44249300e-01
  1.68714400e-01  1.68714400e-01  8.00000000e-01  4.38000000e-02  4.38000000e-02
  3.04752490e+03  4.57369510e+02  1.03948690e+02  2.92101550e+01  9.28666300e+00
  3.16392700e+00  7.86827240e+00  1.88128850e+00  5.44249300e-01  7.86827240e+00
  1.88128850e+00  5.44249300e-01  1.68714400e-01  1.68714400e-01  8.00000000e-01
  4.38000000e-02  4.38000000e-02  3.04752490e+03  4.57369510e+02  1.03948690e+02
  2.92101550e+01  9.28666300e+00  3.16392700e+00  7.86827240e+00  1.88128850e+00
  5.44249300e-01  7.86827240e+00  1.88128850e+00  5.44249300e-01  1.68714400e-01
  1.68714400e-01  8.00000000e-01  4.38000000e-02  4.38000000e-02  3.04752490e+03
  4.57369510e+02  1.03948690e+02  2.92101550e+01  9.28666300e+00  3.16392700e+00
  7.86827240e+00  1.88128850e+00  5.44249300e-01  7.86827240e+00  1.88128850e+00
  5.44249300e-01  1.68714400e-01  1.68714400e-01  8.00000000e-01  4.38000000e-02
  4.38000000e-02  3.04752490e+03  4.57369510e+02  1.03948690e+02  2.92101550e+01
  9.28666300e+00  3.16392700e+00  7.86827240e+00  1.88128850e+00  5.44249300e-01
  7.86827240e+00  1.88128850e+00  5.44249300e-01  1.68714400e-01  1.68714400e-01
  8.00000000e-01  4.38000000e-02  4.38000000e-02  3.04752490e+03  4.57369510e+02
  1.03948690e+02  2.92101550e+01  9.28666300e+00  3.16392700e+00  7.86827240e+00
  1.88128850e+00  5.44249300e-01  7.86827240e+00  1.88128850e+00  5.44249300e-01
  1.68714400e-01  1.68714400e-01  8.00000000e-01  4.38000000e-02  4.38000000e-02
  3.04752490e+03  4.57369510e+02  1.03948690e+02  2.92101550e+01  9.28666300e+00
  3.16392700e+00  7.86827240e+00  1.88128850e+00  5.44249300e-01  7.86827240e+00
  1.88128850e+00  5.44249300e-01  1.68714400e-01  1.68714400e-01  8.00000000e-01
  4.38000000e-02  4.38000000e-02  3.04752490e+03  4.57369510e+02  1.03948690e+02
  2.92101550e+01  9.28666300e+00  3.16392700e+00  7.86827240e+00  1.88128850e+00
  5.44249300e-01  7.86827240e+00  1.88128850e+00  5.44249300e-01  1.68714400e-01
  1.68714400e-01  8.00000000e-01  4.38000000e-02  4.38000000e-02  1.87311370e+01
  2.82539370e+00  6.40121700e-01  1.61277800e-01  1.87311370e+01  2.82539370e+00
  6.40121700e-01  1.61277800e-01  1.87311370e+01  2.82539370e+00  6.40121700e-01
  1.61277800e-01  1.87311370e+01  2.82539370e+00  6.40121700e-01  1.61277800e-01
  1.87311370e+01  2.82539370e+00  6.40121700e-01  1.61277800e-01  1.87311370e+01
  2.82539370e+00  6.40121700e-01  1.61277800e-01  1.87311370e+01  2.82539370e+00
  6.40121700e-01  1.61277800e-01  1.87311370e+01  2.82539370e+00  6.40121700e-01
  1.61277800e-01  1.87311370e+01  2.82539370e+00  6.40121700e-01  1.61277800e-01
  1.87311370e+01  2.82539370e+00  6.40121700e-01  1.61277800e-01  1.87311370e+01
  2.82539370e+00  6.40121700e-01  1.61277800e-01  1.87311370e+01  2.82539370e+00
  6.40121700e-01  1.61277800e-01  1.87311370e+01  2.82539370e+00  6.40121700e-01
  1.61277800e-01  3.04752490e+03  4.57369510e+02  1.03948690e+02  2.92101550e+01
  9.28666300e+00  3.16392700e+00  7.86827240e+00  1.88128850e+00  5.44249300e-01
  7.86827240e+00  1.88128850e+00  5.44249300e-01  1.68714400e-01  1.68714400e-01
  8.00000000e-01  4.38000000e-02  4.38000000e-02  7.00171309e+03  1.05136609e+03
  2.39285690e+02  6.73974453e+01  2.15199573e+01  7.40310130e+00  2.08479528e+01
  4.80830834e+00  1.34406986e+00  2.08479528e+01  4.80830834e+00  1.34406986e+00
  3.58151393e-01  3.58151393e-01  8.00000000e-01  1.07600000e-01  1.07600000e-01
  7.00171309e+03  1.05136609e+03  2.39285690e+02  6.73974453e+01  2.15199573e+01
  7.40310130e+00  2.08479528e+01  4.80830834e+00  1.34406986e+00  2.08479528e+01
  4.80830834e+00  1.34406986e+00  3.58151393e-01  3.58151393e-01  8.00000000e-01
  1.07600000e-01  1.07600000e-01  7.00171309e+03  1.05136609e+03  2.39285690e+02
  6.73974453e+01  2.15199573e+01  7.40310130e+00  2.08479528e+01  4.80830834e+00
  1.34406986e+00  2.08479528e+01  4.80830834e+00  1.34406986e+00  3.58151393e-01
  3.58151393e-01  8.00000000e-01  1.07600000e-01  1.07600000e-01
Contraction coefficients                   R   N=         324
  1.83479944e-03  1.39949958e-02  6.85869792e-02  2.32240930e-01  4.69069858e-01
  3.60454891e-01 -1.14961023e-01 -1.69118034e-01  1.14585223e+00  6.75800232e-02
  3.23907111e-01  7.40895255e-01  1.00000000e+00  1.00000000e+00  1.00000000e+00
  1.00000000e+00  1.00000000e+00  1.83470016e-03  1.40373012e-02  6.88426061e-02
  2.32184421e-01  4.67941342e-01  3.62312032e-01 -1.19332409e-01 -1.60854212e-01
  1.14345648e+00  6.89990956e-02  3.16423980e-01  7.44308252e-01  1.00000000e+00
  1.00000000e+00  1.00000000e+00  1.00000000e+00  1.00000000e+00  1.83470016e-03
  1.40373012e-02  6.88426061e-02  2.32184421e-01  4.67941342e-01  3.62312032e-01
 -1.19332409e-01 -1.60854212e-01  1.14345648e+00  6.89990956e-02  3.16423980e-01
  7.44308252e-01  1.00000000e+00  1.00000000e+00  1.00000000e+00  1.00000000e+00
  1.00000000e+00  1.83479944e-03  1.39949958e-02  6.85869792e-02  2.32240930e-01
  4.69069858e-01  3.60454891e-01 -1.14961023e-01 -1.69118034e-01  1.14585223e+00
  6.75800232e-02  3.23907111e-01  7.40895255e-01  1.00000000e+00  1.00000000e+00
  1.00000000e+00  1.00000000e+00  1.00000000e+00  1.83470016e-03  1.40373012e-02
  6.88426061e-02  2.32184421e-01  4.67941342e-01  3.62312032e-01 -1.19332409e-01
 -1.60854212e-01  1.14345648e+00  6.89990956e-02  3.16423980e-01  7.44308252e-01
  1.00000000e+00  1.00000000e+00  1.00000000e+00  1.00000000e+00  1.00000000e+00
  1.83470016e-03  1.40373012e-02  6.88426061e-02  2.32184421e-01  4.67941342e-01
  3.62312032e-01 -1.19332409e-01 -1.60854212e-01  1.14345648e+00  6.89990956e-02
  3.16423980e-01  7.44308252e-01  1.00000000e+00  1.00000000e+00  1.00000000e+00
  1.00000000e+00  1.00000000e+00  1.83470016e-03  1.40373012e-02  6.88426061e-02
  2.32184421e-01  4.67941342e-01  3.62312032e-01 -1.19332409e-01 -1.60854212e-01
  1.14345648e+00  6.89990956e-02  3.16423980e-01  7.44308252e-01  1.00000000e+00
  1.00000000e+00  1.00000000e+00  1.00000000e+00  1.00000000e+00  1.83470016e-03
  1.40373012e-02  6.88426061e-02  2.32184421e-01  4.67941342e-01  3.62312032e-01
 -1.19332409e-01 -1.60854212e-01  1.14345648e+00  6.89990956e-02  3.16423980e-01
  7.44308252e-01  1.00000000e+00  1.00000000e+00  1.00000000e+00  1.00000000e+00
  1.00000000e+00  1.83470016e-03  1.40373012e-02  6.88426061e-02  2.32184421e-01
  4.67941342e-01  3.62312032e-01 -1.19332409e-01 -1.60854212e-01  1.14345648e+00
  6.89990956e-02  3.16423980e-01  7.44308252e-01  1.00000000e+00  1.00000000e+00
  1.00000000e+00  1.00000000e+00  1.00000000e+00  1.83470016e-03  1.40373012e-02
  6.88426061e-02  2.32184421e-01  4.67941342e-01  3.62312032e-01 -1.19332409e-01
 -1.60854212e-01  1.14345648e+00  6.89990956e-02  3.16423980e-01  7.44308252e-01
  1.00000000e+00  1.00000000e+00  1.00000000e+00  1.00000000e+00  1.00000000e+00
  1.83470016e-03  1.40373012e-02  6.88426061e-02  2.32184421e-01  4.67941342e-01
  3.62312032e-01 -1.19332409e-01 -1.60854212e-01  1.14345648e+00  6.89990956e-02
  3.16423980e-01  7.44308252e-01  1.00000000e+00  1.00000000e+00  1.00000000e+00
  1.00000000e+00  1.00000000e+00  1.83470016e-03  1.40373012e-02  6.88426061e-02
  2.32184421e-01  4.67941342e-01  3.62312032e-01 -1.19332409e-01 -1.60854212e-01
  1.14345648e+00  6.89990956e-02  3.16423980e-01  7.44308252e-01  1.00000000e+00
  1.00000000e+00  1.00000000e+00  1.00000000e+00  1.00000000e+00  3.34945995e-02
  2.34726947e-01  8.13757318e-01  1.00000000e+00  3.34945995e-02  2.34726947e-01
  8.13757318e-01  1.00000000e+00  3.34945995e-02  2.34726947e-01  8.13757318e-01
  1.00000000e+00  3.34945995e-02  2.34726947e-01  8.13757318e-01  1.00000000e+00
  3.34945995e-02  2.34726947e-01  8.13757318e-01  1.00000000e+00  3.34945995e-02
  2.34726947e-01  8.13757318e-01  1.00000000e+00  3.34945995e-02  2.34726947e-01
  8.13757318e-01  1.00000000e+00  3.34945995e-02  2.34726947e-01  8.13757318e-01
  1.00000000e+00  3.34945995e-02  2.34726947e-01  8.13757318e-01  1.00000000e+00
  3.34945995e-02  2.34726947e-01  8.13757318e-01  1.00000000e+00  3.34945995e-02
  2.34726947e-01  8.13757318e-01  1.00000000e+00  3.34945995e-02  2.34726947e-01
  8.13757318e-01  1.00000000e+00  3.34945995e-02  2.34726947e-01  8.13757318e-01
  1.00000000e+00  1.83470016e-03  1.40373012e-02  6.88426061e-02  2.32184421e-01
  4.67941342e-01  3.62312032e-01 -1.19332409e-01 -1.60854212e-01  1.14345648e+00
  6.89990956e-02  3.16423980e-01  7.44308252e-01  1.00000000e+00  1.00000000e+00
  1.00000000e+00  1.00000000e+00  1.00000000e+00  1.81961690e-03  1.39160796e-02
  6.84053245e-02  2.33185760e-01  4.71267439e-01  3.56618546e-01 -1.08506975e-01
 -1.46451658e-01  1.12868858e+00  7.16287242e-02  3.45912103e-01  7.22469956e-01
  1.00000000e+00  1.00000000e+00  1.00000000e+00  1.00000000e+00  1.00000000e+00
  1.81961690e-03  1.39160796e-02  6.84053245e-02  2.33185760e-01  4.71267439e-01
  3.56618546e-01 -1.08506975e-01 -1.46451658e-01  1.12868858e+00  7.16287242e-02
  3.45912103e-01  7.22469956e-01  1.00000000e+00  1.00000000e+00  1.00000000e+00
  1.00000000e+00  1.00000000e+00  1.81961690e-03  1.39160796e-02  6.84053245e-02
  2.33185760e-01  4.71267439e-01  3.56618546e-01 -1.08506975e-01 -1.46451658e-01
  1.12868858e+00  7.16287242e-02  3.45912103e-01  7.22469956e-01  1.00000000e+00
  1.00000000e+00  1.00000000e+00  1.00000000e+00  1.00000000e+00
Coordinates of each shell                  R   N=         462
 -7.77317876e+00 -1.87620396e+00  3.95327944e+00 -7.77317876e+00 -1.87620396e+00
  3.95327944e+00 -7.77317876e+00 -1.87620396e+00  3.95327944e+00 -7.77317876e+00
 -1.87620396e+00  3.95327944e+00 -7.77317876e+00 -1.87620396e+00  3.95327944e+00
 -7.77317876e+00 -1.87620396e+00  3.95327944e+00 -7.77317876e+00 -1.87620396e+00
  3.95327944e+00 -7.77317876e+00 -1.87620396e+00  3.95327944e+00 -5.80504881e+00
 -8.62336139e-01  5.63034007e+00 -5.80504881e+00 -8.62336139e-01  5.63034007e+00
 -5.80504881e+00 -8.62336139e-01  5.63034007e+00 -5.80504881e+00 -8.62336139e-01
  5.63034007e+00 -5.80504881e+00 -8.62336139e-01  5.63034007e+00 -5.80504881e+00
 -8.62336139e-01  5.63034007e+00 -5.80504881e+00 -8.62336139e-01  5.63034007e+00
 -5.80504881e+00 -8.62336139e-01  5.63034007e+00 -3.12735144e+00 -1.76223344e+00
  4.98014894e+00 -3.12735144e+00 -1.76223344e+00  4.98014894e+00 -3.12735144e+00
 -1.76223344e+00  4.98014894e+00 -3.12735144e+00 -1.76223344e+00  4.98014894e+00
 -3.12735144e+00 -1.76223344e+00  4.98014894e+00 -3.12735144e+00 -1.76223344e+00
  4.98014894e+00 -3.12735144e+00 -1.76223344e+00  4.98014894e+00 -3.12735144e+00
 -1.76223344e+00  4.98014894e+00 -2.53595568e+00 -1.10571660e+00  2.36124494e+00
 -2.53595568e+00 -1.10571660e+00  2.36124494e+00 -2.53595568e+00 -1.10571660e+00
  2.36124494e+00 -2.53595568e+00 -1.10571660e+00  2.36124494e+00 -2.53595568e+00
 -1.10571660e+00  2.36124494e+00 -2.53595568e+00 -1.10571660e+00  2.36124494e+00
 -2.53595568e+00 -1.10571660e+00  2.36124494e+00 -2.53595568e+00 -1.10571660e+00
  2.36124494e+00  2.00115419e+00 -1.55642215e+00  3.06211567e+00  2.00115419e+00
 -1.55642215e+00  3.06211567e+00  2.00115419e+00 -1.55642215e+00  3.06211567e+00
  2.00115419e+00 -1.55642215e+00  3.06211567e+00  2.00115419e+00 -1.55642215e+00
  3.06211567e+00  2.00115419e+00 -1.55642215e+00  3.06211567e+00  2.00115419e+00
 -1.55642215e+00  3.06211567e+00  2.00115419e+00 -1.55642215e+00  3.06211567e+00
 -6.96977522e-02 -7.44265119e-01  1.57103565e+00 -6.96977522e-02 -7.44265119e-01
  1.57103565e+00 -6.96977522e-02 -7.44265119e-01  1.57103565e+00 -6.96977522e-02
 -7.44265119e-01  1.57103565e+00 -6.96977522e-02 -7.44265119e-01  1.57103565e+00
 -6.96977522e-02 -7.44265119e-01  1.57103565e+00 -6.96977522e-02 -7.44265119e-01
  1.57103565e+00 -6.96977522e-02 -7.44265119e-01  1.57103565e+00  4.47776776e+00
 -1.18432355e+00  2.25785876e+00  4.47776776e+00 -1.18432355e+00  2.25785876e+00
  4.47776776e+00 -1.18432355e+00  2.25785876e+00  4.47776776e+00 -1.18432355e+00
  2.25785876e+00  4.47776776e+00 -1.18432355e+00  2.25785876e+00  4.47776776e+00
 -1.18432355e+00  2.25785876e+00  4.47776776e+00 -1.18432355e+00  2.25785876e+00
  4.47776776e+00 -1.18432355e+00  2.25785876e+00  5.01310330e+00 -1.80652939e-02
 -4.87573862e-02  5.01310330e+00 -1.80652939e-02 -4.87573862e-02  5.01310330e+00
 -1.80652939e-02 -4.87573862e-02  5.01310330e+00 -1.80652939e-02 -4.87573862e-02
  5.01310330e+00 -1.80652939e-02 -4.87573862e-02  5.01310330e+00 -1.80652939e-02
 -4.87573862e-02  5.01310330e+00 -1.80652939e-02 -4.87573862e-02  5.01310330e+00
 -1.80652939e-02 -4.87573862e-02 -6.85067734e+00 -2.55272898e+00  1.42063281e+00
 -6.85067734e+00 -2.55272898e+00  1.42063281e+00 -6.85067734e+00 -2.55272898e+00
  1.42063281e+00 -6.85067734e+00 -2.55272898e+00  1.42063281e+00 -6.85067734e+00
 -2.55272898e+00  1.42063281e+00 -6.85067734e+00 -2.55272898e+00  1.42063281e+00
 -6.85067734e+00 -2.55272898e+00  1.42063281e+00 -6.85067734e+00 -2.55272898e+00
  1.42063281e+00 -4.67157508e+00 -8.30204000e-01  6.24857148e-01 -4.67157508e+00
 -8.30204000e-01  6.24857148e-01 -4.67157508e+00 -8.30204000e-01  6.24857148e-01
 -4.67157508e+00 -8.30204000e-01  6.24857148e-01 -4.67157508e+00 -8.30204000e-01
  6.24857148e-01 -4.67157508e+00 -8.30204000e-01  6.24857148e-01 -4.67157508e+00
 -8.30204000e-01  6.24857148e-01 -4.67157508e+00 -8.30204000e-01  6.24857148e-01
  4.84571263e-01  4.53873484e-01 -7.51302425e-01  4.84571263e-01  4.53873484e-01
 -7.51302425e-01  4.84571263e-01  4.53873484e-01 -7.51302425e-01  4.84571263e-01
  4.53873484e-01 -7.51302425e-01  4.84571263e-01  4.53873484e-01 -7.51302425e-01
  4.84571263e-01  4.53873484e-01 -7.51302425e-01  4.84571263e-01  4.53873484e-01
 -7.51302425e-01  4.84571263e-01  4.53873484e-01 -7.51302425e-01  2.98338802e+00
  7.89200205e-01 -1.53071442e+00  2.98338802e+00  7.89200205e-01 -1.53071442e+00
  2.98338802e+00  7.89200205e-01 -1.53071442e+00  2.98338802e+00  7.89200205e-01
 -1.53071442e+00  2.98338802e+00  7.89200205e-01 -1.53071442e+00  2.98338802e+00
  7.89200205e-01 -1.53071442e+00  2.98338802e+00  7.89200205e-01 -1.53071442e+00
  2.98338802e+00  7.89200205e-01 -1.53071442e+00  6.94486837e+00  2.59863787e-01
 -6.69917207e-01  6.94486837e+00  2.59863787e-01 -6.69917207e-01 -6.24925494e+00
 -1.38199149e+00  7.58409378e+00 -6.24925494e+00 -1.38199149e+00  7.58409378e+00
 -5.83349459e+00  1.21173130e+00  5.54061261e+00 -5.83349459e+00  1.21173130e+00
  5.54061261e+00  1.67251970e+00 -2.52288794e+00  4.83857323e+00  1.67251970e+00
 -2.52288794e+00  4.83857323e+00 -1.02377575e+00  1.17888418e+00 -1.93010333e+00
 -1.02377575e+00  1.17888418e+00 -1.93010333e+00  6.02027440e+00 -1.83767250e+00
  3.44656715e+00  6.02027440e+00 -1.83767250e+00  3.44656715e+00 -4.07340085e+00
 -1.39070166e+00 -1.27438326e+00 -4.07340085e+00 -1.39070166e+00 -1.27438326e+00
 -5.32792490e+00  1.14395082e+00  5.16270508e-01 -5.32792490e+00  1.14395082e+00
  5.16270508e-01 -8.39438346e+00 -2.35131082e+00  5.15775352e-02 -8.39438346e+00
 -2.35131082e+00  5.15775352e-02 -6.18028533e+00 -4.52433552e+00  1.31584296e+00
 -6.18028533e+00 -4.52433552e+00  1.31584296e+00 -2.94867107e+00 -3.81345901e+00
  5.31588767e+00 -2.94867107e+00 -3.81345901e+00  5.31588767e+00 -1.78548356e+00
 -8.11178771e-01  6.24109126e+00 -1.78548356e+00 -8.11178771e-01  6.24109126e+00
 -8.64564588e+00 -3.38203274e+00  4.76100926e+00 -8.64564588e+00 -3.38203274e+00
  4.76100926e+00  3.45838883e+00  1.98243418e+00 -4.07025969e+00  3.45838883e+00
  1.98243418e+00 -4.07025969e+00  3.45838883e+00  1.98243418e+00 -4.07025969e+00
  3.45838883e+00  1.98243418e+00 -4.07025969e+00  3.45838883e+00  1.98243418e+00
 -4.07025969e+00  3.45838883e+00  1.98243418e+00 -4.07025969e+00  3.45838883e+00
  1.98243418e+00 -4.07025969e+00  3.45838883e+00  1.98243418e+00 -4.07025969e+00
  5.84882188e+00  2.86900553e+00 -4.31525528e+00  5.84882188e+00  2.86900553e+00
 -4.31525528e+00  5.84882188e+00  2.86900553e+00 -4.31525528e+00  5.84882188e+00
  2.86900553e+00 -4.31525528e+00  5.84882188e+00  2.86900553e+00 -4.31525528e+00
  5.84882188e+00  2.86900553e+00 -4.31525528e+00  5.84882188e+00  2.86900553e+00
 -4.31525528e+00  5.84882188e+00  2.86900553e+00 -4.31525528e+00  3.09996088e+00
  3.09821010e-01 -5.99860719e+00  3.09996088e+00  3.09821010e-01 -5.99860719e+00
  3.09996088e+00  3.09821010e-01 -5.99860719e+00  3.09996088e+00  3.09821010e-01
 -5.99860719e+00  3.09996088e+00  3.09821010e-01 -5.99860719e+00  3.09996088e+00
  3.09821010e-01 -5.99860719e+00  3.09996088e+00  3.09821010e-01 -5.99860719e+00
  3.09996088e+00  3.09821010e-01 -5.99860719e+00  1.88035284e+00  3.95549017e+00
 -4.53954272e+00  1.88035284e+00  3.95549017e+00 -4.53954272e+00  1.88035284e+00
  3.95549017e+00 -4.53954272e+00  1.88035284e+00  3.95549017e+00 -4.53954272e+00
  1.88035284e+00  3.95549017e+00 -4.53954272e+00  1.88035284e+00  3.95549017e+00
 -4.53954272e+00  1.88035284e+00  3.95549017e+00 -4.53954272e+00  1.88035284e+00
  3.95549017e+00 -4.53954272e+00
Total Energy                               R     -8.360518974419765e+02
Alpha Orbital Energies                     R   N=         330
 -2.47418648e+01 -2.47400075e+01 -2.47363664e+01 -1.43682568e+01 -1.43388324e+01
 -1.04421840e+01 -1.02488330e+01 -1.02370915e+01 -1.02367180e+01 -1.02298120e+01
 -1.02291925e+01 -1.02217073e+01 -1.02064120e+01 -1.02048637e+01 -1.02022394e+01
 -1.01998272e+01 -1.30988060e+00 -1.22566904e+00 -1.22027887e+00 -9.72673984e-01
 -9.14431411e-01 -8.66498439e-01 -7.91711953e-01 -7.84122790e-01 -7.65641167e-01
 -7.08015081e-01 -6.97769144e-01 -6.73870992e-01 -6.26255859e-01 -6.23137050e-01
 -5.87749172e-01 -5.87248547e-01 -5.77240036e-01 -5.64600253e-01 -5.27634502e-01
 -5.19504966e-01 -5.05504611e-01 -4.91672260e-01 -4.79768540e-01 -4.67040344e-01
 -4.66657008e-01 -4.48610289e-01 -4.47232630e-01 -4.38889228e-01 -4.31280720e-01
 -4.25252734e-01 -4.21896021e-01 -4.16586112e-01 -4.08925232e-01 -4.01481215e-01
 -3.91267196e-01 -3.89712816e-01 -3.77745325e-01 -3.76026645e-01 -3.62022406e-01
 -3.53612483e-01 -3.01536739e-01 -2.69167124e-01 -2.36170814e-01 -2.08220468e-01
 -3.41032551e-02 -1.24337118e-02 -8.50132475e-03  4.76625829e-03  1.06490605e-02
  1.39717845e-02  2.23720480e-02  3.51713207e-02  3.73823836e-02  4.41592135e-02
  4.83788121e-02  5.11037754e-02  5.52293284e-02  6.59625205e-02  6.84087651e-02
  7.76152252e-02  7.86922452e-02  7.93243798e-02  8.95287401e-02  9.58773598e-02
  1.02501309e-01  1.05806111e-01  1.07659651e-01  1.13528816e-01  1.16196701e-01
  1.23042317e-01  1.29591302e-01  1.33919633e-01  1.40376059e-01  1.43790506e-01
  1.49028878e-01  1.51057880e-01  1.54964398e-01  1.60702867e-01  1.64549256e-01