Generated by Psi4
     FORCE                           RHF                       TESTBAS
Number of atoms                            I               35
Charge                                     I                0
Multiplicity                               I                1
Number of electrons                        I              122
Number of alpha electrons                  I               61
Number of beta electrons                   I               61
Number of basis functions                  I              342
Number of independent functions            I              342
Atomic numbers                             I   N=          35
           6           6           6           1           1           7
           6           6           6           6           6           6
           1           1           1           1           1           1
           1           8           6           1           1           1
           8           6           1           1           1           1
           8           6           1           1           1
Nuclear charges                            R   N=          35
  6.00000000e+00  6.00000000e+00  6.00000000e+00  1.00000000e+00  1.00000000e+00
  7.00000000e+00  6.00000000e+00  6.00000000e+00  6.00000000e+00  6.00000000e+00
  6.00000000e+00  6.00000000e+00  1.00000000e+00  1.00000000e+00  1.00000000e+00
  1.00000000e+00  1.00000000e+00  1.00000000e+00  1.00000000e+00  8.00000000e+00
  6.00000000e+00  1.00000000e+00  1.00000000e+00  1.00000000e+00  8.00000000e+00
  6.00000000e+00  1.00000000e+00  1.00000000e+00  1.00000000e+00  1.00000000e+00
  8.00000000e+00  6.00000000e+00  1.00000000e+00  1.00000000e+00  1.00000000e+00
Current cartesian coordinates              R   N=         105
 -4.57912522e-01 -1.04800118e+00  2.18567841e+00 -1.58918084e+00 -1.74253615e+00
  4.72228963e+00 -3.91410938e+00 -1.33450638e-01  5.53095636e+00 -1.38622337e-01
 -1.58460075e+00  6.19989765e+00 -2.18196775e+00 -3.73394453e+00  4.68536508e+00
 -5.14954847e+00 -1.07474299e+00  7.83450844e+00  1.83325771e+00  2.48828446e-01
  2.02161576e+00  2.85192447e+00  9.03891437e-01 -3.31669340e-01  1.59007486e+00
  2.61587473e-01 -2.56872045e+00 -7.42892934e-01 -1.02583543e+00 -2.41191848e+00
 -1.74087420e+00 -1.67845875e+00 -5.39519025e-02 -3.24517684e+00  2.65371446e+00
  5.91020656e+00 -1.85523850e+00  2.87339586e+00  7.43907538e+00 -4.93627662e+00
  3.72895939e+00  6.42350826e+00 -2.42681275e+00  3.47013511e+00  4.19507655e+00
 -5.33030709e+00 -2.59531884e-01  4.01724482e+00 -3.95925877e+00 -9.33878566e-01
  9.34476414e+00 -5.61261548e+00 -2.93636828e+00  7.66188648e+00 -3.51786936e+00
 -2.69474516e+00  6.53758587e-02 -1.85865277e+00 -1.57449383e+00 -4.67583907e+00
 -4.23731961e+00 -2.82151610e+00 -4.66470986e+00 -4.77456307e+00 -3.01345183e+00
 -6.64680916e+00 -5.67037218e+00 -1.70164498e+00 -3.66715594e+00 -4.10187765e+00
 -4.70299286e+00 -3.79991760e+00  2.57468660e+00  9.67796310e-01 -4.86721870e+00
  3.78597062e+00 -1.01968567e+00 -6.25425076e+00  5.36916891e+00 -1.80180121e+00
 -5.16753710e+00  4.49461768e+00 -1.53321890e-01 -7.98909098e+00  2.43712942e+00
 -2.51767703e+00 -6.72587575e+00  2.88682622e+00  7.57193705e-01  3.70879855e+00
  5.17242734e+00  2.07645985e+00 -3.93277327e-01  5.17547137e+00  4.64144824e+00
 -1.27073997e+00  7.13884919e+00  5.27141461e+00 -1.16301833e+00  4.00073634e+00
  5.82507960e+00 -3.47373969e-02  4.49877997e+00  4.76379654e+00 -3.22058047e+00
Integer atomic weights                     I   N=          35
          12          12          12           1           1          14
          12          12          12          12          12          12
           1           1           1           1           1           1
           1          15          12           1           1           1
          15          12           1           1           1           1
          15          12           1           1           1
Real atomic weights                        R   N=          35
  1.20000000e+01  1.20000000e+01  1.20000000e+01  1.00782503e+00  1.00782503e+00
  1.40030740e+01  1.20000000e+01  1.20000000e+01  1.20000000e+01  1.20000000e+01
  1.20000000e+01  1.20000000e+01  1.00782503e+00  1.00782503e+00  1.00782503e+00
  1.00782503e+00  1.00782503e+00  1.00782503e+00  1.00782503e+00  1.59949146e+01
  1.20000000e+01  1.00782503e+00  1.00782503e+00  1.00782503e+00  1.59949146e+01
  1.20000000e+01  1.00782503e+00  1.00782503e+00  1.00782503e+00  1.00782503e+00
  1.59949146e+01  1.20000000e+01  1.00782503e+00  1.00782503e+00  1.00782503e+00
Number of primitive shells                 I              348
Number of contracted shells                I              166
Pure/Cartesian d shells                    I                1
Pure/Cartesian f shells                    I                1
Highest angular momentum                   I                2
Largest degree of contraction              I                6
Shell types                                I   N=         166
           0           0           1           0           1           2
           0           1           0           0           1           0
           1           2           0           1           0           0
           1           0           1           2           0           1
           0           0           0           0           0           0
           1           0           1           2           0           1
           0           0           1           0           1           2
           0           1           0           0           1           0
           1           2           0           1           0           0
           1           0           1           2           0           1
           0           0           1           0           1           2
           0           1           0           0           1           0
           1           2           0           1           0           0
           1           0           1           2           0           1
           0           0           0           0           0           0
           0           0           0           0           0           0
           0           0           0           0           1           0
           1           2           0           1           0           0
           1           0           1           2           0           1
           0           0           0           0           0           0
           0           0           1           0           1           2
           0           1           0           0           1           0
           1           2           0           1           0           0
           0           0           0           0           0           0
           0           0           1           0           1           2
           0           1           0           0           1           0
           1           2           0           1           0           0
           0           0           0           0
Number of primitives per shell             I   N=         166
           6           3           3           1           1           1
           1           1           6           3           3           1
           1           1           1           1           6           3
           3           1           1           1           1           1
           3           1           3           1           6           3
           3           1           1           1           1           1
           6           3           3           1           1           1
           1           1           6           3           3           1
           1           1           1           1           6           3
           3           1           1           1           1           1
           6           3           3           1           1           1
           1           1           6           3           3           1
           1           1           1           1           6           3
           3           1           1           1           1           1
           3           1           3           1           3           1
           3           1           3           1           3           1
           3           1           6           3           3           1
           1           1           1           1           6           3
           3           1           1           1           1           1
           3           1           3           1           3           1
           6           3           3           1           1           1
           1           1           6           3           3           1
           1           1           1           1           3           1
           3           1           3           1           3           1
           6           3           3           1           1           1
           1           1           6           3           3           1
           1           1           1           1           3           1
           3           1           3           1
Shell to atom map                          I   N=         166
           1           1           1           1           1           1
           1           1           2           2           2           2
           2           2           2           2           3           3
           3           3           3           3           3           3
           4           4           5           5           6           6
           6           6           6           6           6           6
           7           7           7           7           7           7
           7           7           8           8           8           8
           8           8           8           8           9           9
           9           9           9           9           9           9
          10          10          10          10          10          10
          10          10          11          11          11          11
          11          11          11          11          12          12
          12          12          12          12          12          12
          13          13          14          14          15          15
          16          16          17          17          18          18
          19          19          20          20          20          20
          20          20          20          20          21          21
          21          21          21          21          21          21
          22          22          23          23          24          24
          25          25          25          25          25          25
          25          25          26          26          26          26
          26          26          26          26          27          27
          28          28          29          29          30          30
          31          31          31          31          31          31
          31          31          32          32          32          32
          32          32          32          32          33          33
          34          34          35          35
Primitive exponents                        R   N=         348
  3.04752490e+03  4.57369510e+02  1.03948690e+02  2.92101550e+01  9.28666300e+00
  3.16392700e+00  7.86827240e+00  1.88128850e+00  5.44249300e-01  7.86827240e+00
  1.88128850e+00  5.44249300e-01  1.68714400e-01  1.68714400e-01  8.00000000e-01
  4.38000000e-02  4.38000000e-02  3.04752490e+03  4.57369510e+02  1.03948690e+02
  2.92101550e+01  9.28666300e+00  3.16392700e+00  7.86827240e+00  1.88128850e+00
  5.44249300e-01  7.86827240e+00  1.88128850e+00  5.44249300e-01  1.68714400e-01
  1.68714400e-01  8.00000000e-01  4.38000000e-02  4.38000000e-02  3.04752490e+03
  4.57369510e+02  1.03948690e+02  2.92101550e+01  9.28666300e+00  3.16392700e+00
  7.86827240e+00  1.88128850e+00  5.44249300e-01  7.86827240e+00  1.88128850e+00
  5.44249300e-01  1.68714400e-01  1.68714400e-01  8.00000000e-01  4.38000000e-02
  4.38000000e-02  1.87311370e+01  2.82539370e+00  6.40121700e-01  1.61277800e-01
  1.87311370e+01  2.82539370e+00  6.40121700e-01  1.61277800e-01  4.17351100e+03
  6.27457900e+02  1.42902100e+02  4.02343300e+01  1.28202100e+01  4.39043700e+00
  1.16263580e+01  2.71628000e+00  7.72218000e-01  1.16263580e+01  2.71628000e+00
  7.72218000e-01  2.12031300e-01  2.12031300e-01  8.00000000e-01  6.39000000e-02
  6.39000000e-02  3.04752490e+03  4.57369510e+02  1.03948690e+02  2.92101550e+01
  9.28666300e+00  3.16392700e+00  7.86827240e+00  1.88128850e+00  5.44249300e-01
  7.86827240e+00  1.88128850e+00  5.44249300e-01  1.68714400e-01  1.68714400e-01
  8.00000000e-01  4.38000000e-02  4.38000000e-02  3.04752490e+03  4.57369510e+02
  1.03948690e+02  2.92101550e+01  9.28666300e+00  3.16392700e+00  7.86827240e+00
  1.88128850e+00  5.44249300e-01  7.86827240e+00  1.88128850e+00  5.44249300e-01
  1.68714400e-01  1.68714400e-01  8.00000000e-01  4.38000000e-02  4.38000000e-02
  3.04752490e+03  4.57369510e+02  1.03948690e+02  2.92101550e+01  9.28666300e+00
  3.16392700e+00  7.86827240e+00  1.88128850e+00  5.44249300e-01  7.86827240e+00
  1.88128850e+00  5.44249300e-01  1.68714400e-01  1.68714400e-01  8.00000000e-01
  4.38000000e-02  4.38000000e-02  3.04752490e+03  4.57369510e+02  1.03948690e+02
  2.92101550e+01  9.28666300e+00  3.16392700e+00  7.86827240e+00  1.88128850e+00
  5.44249300e-01  7.86827240e+00  1.88128850e+00  5.44249300e-01  1.68714400e-01
  1.68714400e-01  8.00000000e-01  4.38000000e-02  4.38000000e-02  3.04752490e+03
  4.57369510e+02  1.03948690e+02  2.92101550e+01  9.28666300e+00  3.16392700e+00
  7.86827240e+00  1.88128850e+00  5.44249300e-01  7.86827240e+00  1.88128850e+00
  5.44249300e-01  1.68714400e-01  1.68714400e-01  8.00000000e-01  4.38000000e-02
  4.38000000e-02  3.04752490e+03  4.57369510e+02  1.03948690e+02  2.92101550e+01
  9.28666300e+00  3.16392700e+00  7.86827240e+00  1.88128850e+00  5.44249300e-01
  7.86827240e+00  1.88128850e+00  5.44249300e-01  1.68714400e-01  1.68714400e-01
  8.00000000e-01  4.38000000e-02  4.38000000e-02  1.87311370e+01  2.82539370e+00
  6.40121700e-01  1.61277800e-01  1.87311370e+01  2.82539370e+00  6.40121700e-01
  1.61277800e-01  1.87311370e+01  2.82539370e+00  6.40121700e-01  1.61277800e-01
  1.87311370e+01  2.82539370e+00  6.40121700e-01  1.61277800e-01  1.87311370e+01
  2.82539370e+00  6.40121700e-01  1.61277800e-01  1.87311370e+01  2.82539370e+00
  6.40121700e-01  1.61277800e-01  1.87311370e+01  2.82539370e+00  6.40121700e-01
  1.61277800e-01  5.48467170e+03  8.25234950e+02  1.88046960e+02  5.29645000e+01
  1.68975700e+01  5.79963530e+00  1.55396160e+01  3.59993360e+00  1.01376180e+00
  1.55396160e+01  3.59993360e+00  1.01376180e+00  2.70005800e-01  2.70005800e-01
  8.00000000e-01  8.45000000e-02  8.45000000e-02  3.04752490e+03  4.57369510e+02
  1.03948690e+02  2.92101550e+01  9.28666300e+00  3.16392700e+00  7.86827240e+00
  1.88128850e+00  5.44249300e-01  7.86827240e+00  1.88128850e+00  5.44249300e-01
  1.68714400e-01  1.68714400e-01  8.00000000e-01  4.38000000e-02  4.38000000e-02
  1.87311370e+01  2.82539370e+00  6.40121700e-01  1.61277800e-01  1.87311370e+01
  2.82539370e+00  6.40121700e-01  1.61277800e-01  1.87311370e+01  2.82539370e+00
  6.40121700e-01  1.61277800e-01  5.48467170e+03  8.25234950e+02  1.88046960e+02
  5.29645000e+01  1.68975700e+01  5.79963530e+00  1.55396160e+01  3.59993360e+00
  1.01376180e+00  1.55396160e+01  3.59993360e+00  1.01376180e+00  2.70005800e-01
  2.70005800e-01  8.00000000e-01  8.45000000e-02  8.45000000e-02  3.04752490e+03
  4.57369510e+02  1.03948690e+02  2.92101550e+01  9.28666300e+00  3.16392700e+00
  7.86827240e+00  1.88128850e+00  5.44249300e-01  7.86827240e+00  1.88128850e+00
  5.44249300e-01  1.68714400e-01  1.68714400e-01  8.00000000e-01  4.38000000e-02
  4.38000000e-02  1.87311370e+01  2.82539370e+00  6.40121700e-01  1.61277800e-01
  1.87311370e+01  2.82539370e+00  6.40121700e-01  1.61277800e-01  1.87311370e+01
  2.82539370e+00  6.40121700e-01  1.61277800e-01  1.87311370e+01  2.82539370e+00
  6.40121700e-01  1.61277800e-01  5.48467170e+03  8.25234950e+02  1.88046960e+02
  5.29645000e+01  1.68975700e+01  5.79963530e+00  1.55396160e+01  3.59993360e+00
  1.01376180e+00  1.55396160e+01  3.59993360e+00  1.01376180e+00  2.70005800e-01
  2.70005800e-01  8.00000000e-01  8.45000000e-02  8.45000000e-02  3.04752490e+03
  4.57369510e+02  1.03948690e+02  2.92101550e+01  9.28666300e+00  3.16392700e+00
  7.86827240e+00  1.88128850e+00  5.44249300e-01  7.86827240e+00  1.88128850e+00
  5.44249300e-01  1.68714400e-01  1.68714400e-01  8.00000000e-01  4.38000000e-02
  4.38000000e-02  1.87311370e+01  2.82539370e+00  6.40121700e-01  1.61277800e-01
  1.87311370e+01  2.82539370e+00  6.40121700e-01  1.61277800e-01  1.87311370e+01
  2.82539370e+00  6.40121700e-01  1.61277800e-01
Contraction coefficients                   R   N=         348
  1.83470016e-03  1.40373012e-02  6.88426061e-02  2.32184421e-01  4.67941342e-01
  3.62312032e-01 -1.19332409e-01 -1.60854212e-01  1.14345648e+00  6.89990956e-02
  3.16423980e-01  7.44308252e-01  1.00000000e+00  1.00000000e+00  1.00000000e+00
  1.00000000e+00  1.00000000e+00  1.83470016e-03  1.40373012e-02  6.88426061e-02
  2.32184421e-01  4.67941342e-01  3.62312032e-01 -1.19332409e-01 -1.60854212e-01
  1.14345648e+00  6.89990956e-02  3.16423980e-01  7.44308252e-01  1.00000000e+00
  1.00000000e+00  1.00000000e+00  1.00000000e+00  1.00000000e+00  1.83470016e-03
  1.40373012e-02  6.88426061e-02  2.32184421e-01  4.67941342e-01  3.62312032e-01
 -1.19332409e-01 -1.60854212e-01  1.14345648e+00  6.89990956e-02  3.16423980e-01
  7.44308252e-01  1.00000000e+00  1.00000000e+00  1.00000000e+00  1.00000000e+00
  1.00000000e+00  3.34945995e-02  2.34726947e-01  8.13757318e-01  1.00000000e+00
  3.34945995e-02  2.34726947e-01  8.13757318e-01  1.00000000e+00  1.83479944e-03
  1.39949958e-02  6.85869792e-02  2.32240930e-01  4.69069858e-01  3.60454891e-01
 -1.14961023e-01 -1.69118034e-01  1.14585223e+00  6.75800232e-02  3.23907111e-01
  7.40895255e-01  1.00000000e+00  1.00000000e+00  1.00000000e+00  1.00000000e+00
  1.00000000e+00  1.83470016e-03  1.40373012e-02  6.88426061e-02  2.32184421e-01
  4.67941342e-01  3.62312032e-01 -1.19332409e-01 -1.60854212e-01  1.14345648e+00
  6.89990956e-02  3.16423980e-01  7.44308252e-01  1.00000000e+00  1.00000000e+00
  1.00000000e+00  1.00000000e+00  1.00000000e+00  1.83470016e-03  1.40373012e-02
  6.88426061e-02  2.32184421e-01  4.67941342e-01  3.62312032e-01 -1.19332409e-01
 -1.60854212e-01  1.14345648e+00  6.89990956e-02  3.16423980e-01  7.44308252e-01
  1.00000000e+00  1.00000000e+00  1.00000000e+00  1.00000000e+00  1.00000000e+00
  1.83470016e-03  1.40373012e-02  6.88426061e-02  2.32184421e-01  4.67941342e-01
  3.62312032e-01 -1.19332409e-01 -1.60854212e-01  1.14345648e+00  6.89990956e-02
  3.16423980e-01  7.44308252e-01  1.00000000e+00  1.00000000e+00  1.00000000e+00
  1.00000000e+00  1.00000000e+00  1.83470016e-03  1.40373012e-02  6.88426061e-02
  2.32184421e-01  4.67941342e-01  3.62312032e-01 -1.19332409e-01 -1.60854212e-01
  1.14345648e+00  6.89990956e-02  3.16423980e-01  7.44308252e-01  1.00000000e+00
  1.00000000e+00  1.00000000e+00  1.00000000e+00  1.00000000e+00  1.83470016e-03
  1.40373012e-02  6.88426061e-02  2.32184421e-01  4.67941342e-01  3.62312032e-01
 -1.19332409e-01 -1.60854212e-01  1.14345648e+00  6.89990956e-02  3.16423980e-01
  7.44308252e-01  1.00000000e+00  1.00000000e+00  1.00000000e+00  1.00000000e+00
  1.00000000e+00  1.83470016e-03  1.40373012e-02  6.88426061e-02  2.32184421e-01
  4.67941342e-01  3.62312032e-01 -1.19332409e-01 -1.60854212e-01  1.14345648e+00
  6.89990956e-02  3.16423980e-01  7.44308252e-01  1.00000000e+00  1.00000000e+00
  1.00000000e+00  1.00000000e+00  1.00000000e+00  3.34945995e-02  2.34726947e-01
  8.13757318e-01  1.00000000e+00  3.34945995e-02  2.34726947e-01  8.13757318e-01
  1.00000000e+00  3.34945995e-02  2.34726947e-01  8.13757318e-01  1.00000000e+00
  3.34945995e-02  2.34726947e-01  8.13757318e-01  1.00000000e+00  3.34945995e-02
  2.34726947e-01  8.13757318e-01  1.00000000e+00  3.34945995e-02  2.34726947e-01
  8.13757318e-01  1.00000000e+00  3.34945995e-02  2.34726947e-01  8.13757318e-01
  1.00000000e+00  1.83109981e-03  1.39500985e-02  6.84450927e-02  2.32714275e-01
  4.70192950e-01  3.58520862e-01 -1.10777504e-01 -1.48026305e-01  1.13076704e+00
  7.08742995e-02  3.39752798e-01  7.27158595e-01  1.00000000e+00  1.00000000e+00
  1.00000000e+00  1.00000000e+00  1.00000000e+00  1.83470016e-03  1.40373012e-02
  6.88426061e-02  2.32184421e-01  4.67941342e-01  3.62312032e-01 -1.19332409e-01
 -1.60854212e-01  1.14345648e+00  6.89990956e-02  3.16423980e-01  7.44308252e-01
  1.00000000e+00  1.00000000e+00  1.00000000e+00  1.00000000e+00  1.00000000e+00
  3.34945995e-02  2.34726947e-01  8.13757318e-01  1.00000000e+00  3.34945995e-02
  2.34726947e-01  8.13757318e-01  1.00000000e+00  3.34945995e-02  2.34726947e-01
  8.13757318e-01  1.00000000e+00  1.83109981e-03  1.39500985e-02  6.84450927e-02
  2.32714275e-01  4.70192950e-01  3.58520862e-01 -1.10777504e-01 -1.48026305e-01
  1.13076704e+00  7.08742995e-02  3.39752798e-01  7.27158595e-01  1.00000000e+00
  1.00000000e+00  1.00000000e+00  1.00000000e+00  1.00000000e+00  1.83470016e-03
  1.40373012e-02  6.88426061e-02  2.32184421e-01  4.67941342e-01  3.62312032e-01
 -1.19332409e-01 -1.60854212e-01  1.14345648e+00  6.89990956e-02  3.16423980e-01
  7.44308252e-01  1.00000000e+00  1.00000000e+00  1.00000000e+00  1.00000000e+00
  1.00000000e+00  3.34945995e-02  2.34726947e-01  8.13757318e-01  1.00000000e+00
  3.34945995e-02  2.34726947e-01  8.13757318e-01  1.00000000e+00  3.34945995e-02
  2.34726947e-01  8.13757318e-01  1.00000000e+00  3.34945995e-02  2.34726947e-01
  8.13757318e-01  1.00000000e+00  1.83109981e-03  1.39500985e-02  6.84450927e-02
  2.32714275e-01  4.70192950e-01  3.58520862e-01 -1.10777504e-01 -1.48026305e-01
  1.13076704e+00  7.08742995e-02  3.39752798e-01  7.27158595e-01  1.00000000e+00
  1.00000000e+00  1.00000000e+00  1.00000000e+00  1.00000000e+00  1.83470016e-03
  1.40373012e-02  6.88426061e-02  2.32184421e-01  4.67941342e-01  3.62312032e-01
 -1.19332409e-01 -1.60854212e-01  1.14345648e+00  6.89990956e-02  3.16423980e-01
  7.44308252e-01  1.00000000e+00  1.00000000e+00  1.00000000e+00  1.00000000e+00
  1.00000000e+00  3.34945995e-02  2.34726947e-01  8.13757318e-01  1.00000000e+00
  3.34945995e-02  2.34726947e-01  8.13757318e-01  1.00000000e+00  3.34945995e-02
  2.34726947e-01  8.13757318e-01  1.00000000e+00
Coordinates of each shell                  R   N=         498
 -4.57912522e-01 -1.04800118e+00  2.18567841e+00 -4.57912522e-01 -1.04800118e+00
  2.18567841e+00 -4.57912522e-01 -1.04800118e+00  2.18567841e+00 -4.57912522e-01
 -1.04800118e+00  2.18567841e+00 -4.57912522e-01 -1.04800118e+00  2.18567841e+00
 -4.57912522e-01 -1.04800118e+00  2.18567841e+00 -4.57912522e-01 -1.04800118e+00
  2.18567841e+00 -4.57912522e-01 -1.04800118e+00  2.18567841e+00 -1.58918084e+00
 -1.74253615e+00  4.72228963e+00 -1.58918084e+00 -1.74253615e+00  4.72228963e+00
 -1.58918084e+00 -1.74253615e+00  4.72228963e+00 -1.58918084e+00 -1.74253615e+00
  4.72228963e+00 -1.58918084e+00 -1.74253615e+00  4.72228963e+00 -1.58918084e+00
 -1.74253615e+00  4.72228963e+00 -1.58918084e+00 -1.74253615e+00  4.72228963e+00
 -1.58918084e+00 -1.74253615e+00  4.72228963e+00 -3.91410938e+00 -1.33450638e-01
  5.53095636e+00 -3.91410938e+00 -1.33450638e-01  5.53095636e+00 -3.91410938e+00
 -1.33450638e-01  5.53095636e+00 -3.91410938e+00 -1.33450638e-01  5.53095636e+00
 -3.91410938e+00 -1.33450638e-01  5.53095636e+00 -3.91410938e+00 -1.33450638e-01
  5.53095636e+00 -3.91410938e+00 -1.33450638e-01  5.53095636e+00 -3.91410938e+00
 -1.33450638e-01  5.53095636e+00 -1.38622337e-01 -1.58460075e+00  6.19989765e+00
 -1.38622337e-01 -1.58460075e+00  6.19989765e+00 -2.18196775e+00 -3.73394453e+00
  4.68536508e+00 -2.18196775e+00 -3.73394453e+00  4.68536508e+00 -5.14954847e+00
 -1.07474299e+00  7.83450844e+00 -5.14954847e+00 -1.07474299e+00  7.83450844e+00
 -5.14954847e+00 -1.07474299e+00  7.83450844e+00 -5.14954847e+00 -1.07474299e+00
  7.83450844e+00 -5.14954847e+00 -1.07474299e+00  7.83450844e+00 -5.14954847e+00
 -1.07474299e+00  7.83450844e+00 -5.14954847e+00 -1.07474299e+00  7.83450844e+00
 -5.14954847e+00 -1.07474299e+00  7.83450844e+00  1.83325771e+00  2.48828446e-01
  2.02161576e+00  1.83325771e+00  2.48828446e-01  2.02161576e+00  1.83325771e+00
  2.48828446e-01  2.02161576e+00  1.83325771e+00  2.48828446e-01  2.02161576e+00
  1.83325771e+00  2.48828446e-01  2.02161576e+00  1.83325771e+00  2.48828446e-01
  2.02161576e+00  1.83325771e+00  2.48828446e-01  2.02161576e+00  1.83325771e+00
  2.48828446e-01  2.02161576e+00  2.85192447e+00  9.03891437e-01 -3.31669340e-01
  2.85192447e+00  9.03891437e-01 -3.31669340e-01  2.85192447e+00  9.03891437e-01
 -3.31669340e-01  2.85192447e+00  9.03891437e-01 -3.31669340e-01  2.85192447e+00
  9.03891437e-01 -3.31669340e-01  2.85192447e+00  9.03891437e-01 -3.31669340e-01
  2.85192447e+00  9.03891437e-01 -3.31669340e-01  2.85192447e+00  9.03891437e-01
 -3.31669340e-01  1.59007486e+00  2.61587473e-01 -2.56872045e+00  1.59007486e+00
  2.61587473e-01 -2.56872045e+00  1.59007486e+00  2.61587473e-01 -2.56872045e+00
  1.59007486e+00  2.61587473e-01 -2.56872045e+00  1.59007486e+00  2.61587473e-01
 -2.56872045e+00  1.59007486e+00  2.61587473e-01 -2.56872045e+00  1.59007486e+00
  2.61587473e-01 -2.56872045e+00  1.59007486e+00  2.61587473e-01 -2.56872045e+00
 -7.42892934e-01 -1.02583543e+00 -2.41191848e+00 -7.42892934e-01 -1.02583543e+00
 -2.41191848e+00 -7.42892934e-01 -1.02583543e+00 -2.41191848e+00 -7.42892934e-01
 -1.02583543e+00 -2.41191848e+00 -7.42892934e-01 -1.02583543e+00 -2.41191848e+00
 -7.42892934e-01 -1.02583543e+00 -2.41191848e+00 -7.42892934e-01 -1.02583543e+00
 -2.41191848e+00 -7.42892934e-01 -1.02583543e+00 -2.41191848e+00 -1.74087420e+00
 -1.67845875e+00 -5.39519025e-02 -1.74087420e+00 -1.67845875e+00 -5.39519025e-02
 -1.74087420e+00 -1.67845875e+00 -5.39519025e-02 -1.74087420e+00 -1.67845875e+00
 -5.39519025e-02 -1.74087420e+00 -1.67845875e+00 -5.39519025e-02 -1.74087420e+00
 -1.67845875e+00 -5.39519025e-02 -1.74087420e+00 -1.67845875e+00 -5.39519025e-02
 -1.74087420e+00 -1.67845875e+00 -5.39519025e-02 -3.24517684e+00  2.65371446e+00
  5.91020656e+00 -3.24517684e+00  2.65371446e+00  5.91020656e+00 -3.24517684e+00
  2.65371446e+00  5.91020656e+00 -3.24517684e+00  2.65371446e+00  5.91020656e+00
 -3.24517684e+00  2.65371446e+00  5.91020656e+00 -3.24517684e+00  2.65371446e+00
  5.91020656e+00 -3.24517684e+00  2.65371446e+00  5.91020656e+00 -3.24517684e+00
  2.65371446e+00  5.91020656e+00 -1.85523850e+00  2.87339586e+00  7.43907538e+00
 -1.85523850e+00  2.87339586e+00  7.43907538e+00 -4.93627662e+00  3.72895939e+00
  6.42350826e+00 -4.93627662e+00  3.72895939e+00  6.42350826e+00 -2.42681275e+00
  3.47013511e+00  4.19507655e+00 -2.42681275e+00  3.47013511e+00  4.19507655e+00
 -5.33030709e+00 -2.59531884e-01  4.01724482e+00 -5.33030709e+00 -2.59531884e-01
  4.01724482e+00 -3.95925877e+00 -9.33878566e-01  9.34476414e+00 -3.95925877e+00
 -9.33878566e-01  9.34476414e+00 -5.61261548e+00 -2.93636828e+00  7.66188648e+00
 -5.61261548e+00 -2.93636828e+00  7.66188648e+00 -3.51786936e+00 -2.69474516e+00
  6.53758587e-02 -3.51786936e+00 -2.69474516e+00  6.53758587e-02 -1.85865277e+00
 -1.57449383e+00 -4.67583907e+00 -1.85865277e+00 -1.57449383e+00 -4.67583907e+00
 -1.85865277e+00 -1.57449383e+00 -4.67583907e+00 -1.85865277e+00 -1.57449383e+00
 -4.67583907e+00 -1.85865277e+00 -1.57449383e+00 -4.67583907e+00 -1.85865277e+00
 -1.57449383e+00 -4.67583907e+00 -1.85865277e+00 -1.57449383e+00 -4.67583907e+00
 -1.85865277e+00 -1.57449383e+00 -4.67583907e+00 -4.23731961e+00 -2.82151610e+00
 -4.66470986e+00 -4.23731961e+00 -2.82151610e+00 -4.66470986e+00 -4.23731961e+00
 -2.82151610e+00 -4.66470986e+00 -4.23731961e+00 -2.82151610e+00 -4.66470986e+00
 -4.23731961e+00 -2.82151610e+00 -4.66470986e+00 -4.23731961e+00 -2.82151610e+00
 -4.66470986e+00 -4.23731961e+00 -2.82151610e+00 -4.66470986e+00 -4.23731961e+00
 -2.82151610e+00 -4.66470986e+00 -4.77456307e+00 -3.01345183e+00 -6.64680916e+00
 -4.77456307e+00 -3.01345183e+00 -6.64680916e+00 -5.67037218e+00 -1.70164498e+00
 -3.66715594e+00 -5.67037218e+00 -1.70164498e+00 -3.66715594e+00 -4.10187765e+00
 -4.70299286e+00 -3.79991760e+00 -4.10187765e+00 -4.70299286e+00 -3.79991760e+00
  2.57468660e+00  9.67796310e-01 -4.86721870e+00  2.57468660e+00  9.67796310e-01
 -4.86721870e+00  2.57468660e+00  9.67796310e-01 -4.86721870e+00  2.57468660e+00
  9.67796310e-01 -4.86721870e+00  2.57468660e+00  9.67796310e-01 -4.86721870e+00
  2.57468660e+00  9.67796310e-01 -4.86721870e+00  2.57468660e+00  9.67796310e-01
 -4.86721870e+00  2.57468660e+00  9.67796310e-01 -4.86721870e+00  3.78597062e+00
 -1.01968567e+00 -6.25425076e+00  3.78597062e+00 -1.01968567e+00 -6.25425076e+00
  3.78597062e+00 -1.01968567e+00 -6.25425076e+00  3.78597062e+00 -1.01968567e+00
 -6.25425076e+00  3.78597062e+00 -1.01968567e+00 -6.25425076e+00  3.78597062e+00
 -1.01968567e+00 -6.25425076e+00  3.78597062e+00 -1.01968567e+00 -6.25425076e+00
  3.78597062e+00 -1.01968567e+00 -6.25425076e+00  5.36916891e+00 -1.80180121e+00
 -5.16753710e+00  5.36916891e+00 -1.80180121e+00 -5.16753710e+00  4.49461768e+00
 -1.53321890e-01 -7.98909098e+00  4.49461768e+00 -1.53321890e-01 -7.98909098e+00
  2.43712942e+00 -2.51767703e+00 -6.72587575e+00  2.43712942e+00 -2.51767703e+00
 -6.72587575e+00  2.88682622e+00  7.57193705e-01  3.70879855e+00  2.88682622e+00
  7.57193705e-01  3.70879855e+00  5.17242734e+00  2.07645985e+00 -3.93277327e-01
  5.17242734e+00  2.07645985e+00 -3.93277327e-01  5.17242734e+00  2.07645985e+00
 -3.93277327e-01  5.17242734e+00  2.07645985e+00 -3.93277327e-01  5.17242734e+00
  2.07645985e+00 -3.93277327e-01  5.17242734e+00  2.07645985e+00 -3.93277327e-01