Generated by Psi4
     FORCE                           RHF                       TESTBAS
Number of atoms                            I               32
Charge                                     I                0
Multiplicity                               I                1
Number of electrons                        I              120
Number of alpha electrons                  I               60
Number of beta electrons                   I               60
Number of basis functions                  I              336
Number of independent functions            I              336
Atomic numbers                             I   N=          32
           8           6           6           7           6           7
           6           8           8           1           1           6
           6           6           6           1           1           1
           6           1           6           1           1           6
           1           1           1           1           1           1
           1           1
Nuclear charges                            R   N=          32
  8.00000000e+00  6.00000000e+00  6.00000000e+00  7.00000000e+00  6.00000000e+00
  7.00000000e+00  6.00000000e+00  8.00000000e+00  8.00000000e+00  1.00000000e+00
  1.00000000e+00  6.00000000e+00  6.00000000e+00  6.00000000e+00  6.00000000e+00
  1.00000000e+00  1.00000000e+00  1.00000000e+00  6.00000000e+00  1.00000000e+00
  6.00000000e+00  1.00000000e+00  1.00000000e+00  6.00000000e+00  1.00000000e+00
  1.00000000e+00  1.00000000e+00  1.00000000e+00  1.00000000e+00  1.00000000e+00
  1.00000000e+00  1.00000000e+00
Current cartesian coordinates              R   N=          96
  2.74571069e+00  1.54982898e+00  2.66389529e+00 -6.39531928e-01  5.02768166e-01
 -2.34789948e-01  2.02383524e+00  1.37880625e+00  4.84811252e-01  3.65873404e+00
  2.03612474e+00 -1.46625379e+00  3.21701655e+00  1.96550359e+00 -4.04946762e+00
  8.42118508e-01  1.07419849e+00 -4.71278399e+00 -1.06854275e+00  2.58510117e-01
 -3.11443123e+00  4.78279977e+00  2.61655713e+00 -5.60175867e+00 -3.03092973e+00
 -5.61446080e-01 -3.99401054e+00  4.89728016e-01  9.73887251e-01 -6.59734183e+00
  5.39891682e+00  2.65695528e+00 -9.44279564e-01 -1.23591234e+00 -2.18441557e+00
  9.57203315e-01  6.73485690e-01 -4.17429781e+00  3.29931066e-02 -2.60584935e+00
  2.45699115e+00  5.94460645e-01 -2.21825729e+00  4.59872215e+00  1.86814292e+00
  2.57607365e+00 -3.79587141e+00  7.65391068e-01  7.74300091e-01 -4.26525108e+00
 -2.03482811e+00  1.24854286e-01 -6.05745210e+00  6.87767992e-01 -1.47871719e+00
 -2.16910813e+00  3.86178147e+00 -3.09170104e+00 -2.65886165e+00  1.64105054e-01
 -2.92478656e+00 -4.46675327e+00  4.90099818e+00 -2.46663519e+00 -4.50114127e-01
  4.46382373e+00  4.02472853e-01 -2.07715775e+00  4.72427571e+00 -3.21676042e+00
 -4.37349317e+00  7.78342345e+00 -1.95834863e+00 -6.22773532e+00  4.37924283e+00
 -4.80561922e+00 -4.55318701e+00  4.01995884e+00 -1.36808429e+00 -4.34579341e+00
  8.72254724e+00 -4.25807730e+00 -6.02098467e+00  8.48742757e+00 -4.24558620e+00
 -2.67386458e+00  8.37839616e+00 -4.50673287e+00  1.95430317e+00 -1.20784574e-02
 -3.73960956e-01  5.18692933e+00  2.54871274e+00 -3.80235452e+00  5.82816907e+00
  2.31211592e+00
Integer atomic weights                     I   N=          32
          15          12          12          14          12          14
          12          15          15           1           1          12
          12          12          12           1           1           1
          12           1          12           1           1          12
           1           1           1           1           1           1
           1           1
Real atomic weights                        R   N=          32
  1.59949146e+01  1.20000000e+01  1.20000000e+01  1.40030740e+01  1.20000000e+01
  1.40030740e+01  1.20000000e+01  1.59949146e+01  1.59949146e+01  1.00782503e+00
  1.00782503e+00  1.20000000e+01  1.20000000e+01  1.20000000e+01  1.20000000e+01
  1.00782503e+00  1.00782503e+00  1.00782503e+00  1.20000000e+01  1.00782503e+00
  1.20000000e+01  1.00782503e+00  1.00782503e+00  1.20000000e+01  1.00782503e+00
  1.00782503e+00  1.00782503e+00  1.00782503e+00  1.00782503e+00  1.00782503e+00
  1.00782503e+00  1.00782503e+00
Number of primitive shells                 I              336
Number of contracted shells                I              160
Pure/Cartesian d shells                    I                1
Pure/Cartesian f shells                    I                1
Highest angular momentum                   I                2
Largest degree of contraction              I                6
Shell types                                I   N=         160
           0           0           1           0           1           2
           0           1           0           0           1           0
           1           2           0           1           0           0
           1           0           1           2           0           1
           0           0           1           0           1           2
           0           1           0           0           1           0
           1           2           0           1           0           0
           1           0           1           2           0           1
           0           0           1           0           1           2
           0           1           0           0           1           0
           1           2           0           1           0           0
           1           0           1           2           0           1
           0           0           0           0           0           0
           1           0           1           2           0           1
           0           0           1           0           1           2
           0           1           0           0           1           0
           1           2           0           1           0           0
           1           0           1           2           0           1
           0           0           0           0           0           0
           0           0           1           0           1           2
           0           1           0           0           0           0
           1           0           1           2           0           1
           0           0           0           0           0           0
           1           0           1           2           0           1
           0           0           0           0           0           0
           0           0           0           0           0           0
           0           0           0           0
Number of primitives per shell             I   N=         160
           6           3           3           1           1           1
           1           1           6           3           3           1
           1           1           1           1           6           3
           3           1           1           1           1           1
           6           3           3           1           1           1
           1           1           6           3           3           1
           1           1           1           1           6           3
           3           1           1           1           1           1
           6           3           3           1           1           1
           1           1           6           3           3           1
           1           1           1           1           6           3
           3           1           1           1           1           1
           3           1           3           1           6           3
           3           1           1           1           1           1
           6           3           3           1           1           1
           1           1           6           3           3           1
           1           1           1           1           6           3
           3           1           1           1           1           1
           3           1           3           1           3           1
           6           3           3           1           1           1
           1           1           3           1           6           3
           3           1           1           1           1           1
           3           1           3           1           6           3
           3           1           1           1           1           1
           3           1           3           1           3           1
           3           1           3           1           3           1
           3           1           3           1
Shell to atom map                          I   N=         160
           1           1           1           1           1           1
           1           1           2           2           2           2
           2           2           2           2           3           3
           3           3           3           3           3           3
           4           4           4           4           4           4
           4           4           5           5           5           5
           5           5           5           5           6           6
           6           6           6           6           6           6
           7           7           7           7           7           7
           7           7           8           8           8           8
           8           8           8           8           9           9
           9           9           9           9           9           9
          10          10          11          11          12          12
          12          12          12          12          12          12
          13          13          13          13          13          13
          13          13          14          14          14          14
          14          14          14          14          15          15
          15          15          15          15          15          15
          16          16          17          17          18          18
          19          19          19          19          19          19
          19          19          20          20          21          21
          21          21          21          21          21          21
          22          22          23          23          24          24
          24          24          24          24          24          24
          25          25          26          26          27          27
          28          28          29          29          30          30
          31          31          32          32
Primitive exponents                        R   N=         336
  5.48467170e+03  8.25234950e+02  1.88046960e+02  5.29645000e+01  1.68975700e+01
  5.79963530e+00  1.55396160e+01  3.59993360e+00  1.01376180e+00  1.55396160e+01
  3.59993360e+00  1.01376180e+00  2.70005800e-01  2.70005800e-01  8.00000000e-01
  8.45000000e-02  8.45000000e-02  3.04752490e+03  4.57369510e+02  1.03948690e+02
  2.92101550e+01  9.28666300e+00  3.16392700e+00  7.86827240e+00  1.88128850e+00
  5.44249300e-01  7.86827240e+00  1.88128850e+00  5.44249300e-01  1.68714400e-01
  1.68714400e-01  8.00000000e-01  4.38000000e-02  4.38000000e-02  3.04752490e+03
  4.57369510e+02  1.03948690e+02  2.92101550e+01  9.28666300e+00  3.16392700e+00
  7.86827240e+00  1.88128850e+00  5.44249300e-01  7.86827240e+00  1.88128850e+00
  5.44249300e-01  1.68714400e-01  1.68714400e-01  8.00000000e-01  4.38000000e-02
  4.38000000e-02  4.17351100e+03  6.27457900e+02  1.42902100e+02  4.02343300e+01
  1.28202100e+01  4.39043700e+00  1.16263580e+01  2.71628000e+00  7.72218000e-01
  1.16263580e+01  2.71628000e+00  7.72218000e-01  2.12031300e-01  2.12031300e-01
  8.00000000e-01  6.39000000e-02  6.39000000e-02  3.04752490e+03  4.57369510e+02
  1.03948690e+02  2.92101550e+01  9.28666300e+00  3.16392700e+00  7.86827240e+00
  1.88128850e+00  5.44249300e-01  7.86827240e+00  1.88128850e+00  5.44249300e-01
  1.68714400e-01  1.68714400e-01  8.00000000e-01  4.38000000e-02  4.38000000e-02
  4.17351100e+03  6.27457900e+02  1.42902100e+02  4.02343300e+01  1.28202100e+01
  4.39043700e+00  1.16263580e+01  2.71628000e+00  7.72218000e-01  1.16263580e+01
  2.71628000e+00  7.72218000e-01  2.12031300e-01  2.12031300e-01  8.00000000e-01
  6.39000000e-02  6.39000000e-02  3.04752490e+03  4.57369510e+02  1.03948690e+02
  2.92101550e+01  9.28666300e+00  3.16392700e+00  7.86827240e+00  1.88128850e+00
  5.44249300e-01  7.86827240e+00  1.88128850e+00  5.44249300e-01  1.68714400e-01
  1.68714400e-01  8.00000000e-01  4.38000000e-02  4.38000000e-02  5.48467170e+03
  8.25234950e+02  1.88046960e+02  5.29645000e+01  1.68975700e+01  5.79963530e+00
  1.55396160e+01  3.59993360e+00  1.01376180e+00  1.55396160e+01  3.59993360e+00
  1.01376180e+00  2.70005800e-01  2.70005800e-01  8.00000000e-01  8.45000000e-02
  8.45000000e-02  5.48467170e+03  8.25234950e+02  1.88046960e+02  5.29645000e+01
  1.68975700e+01  5.79963530e+00  1.55396160e+01  3.59993360e+00  1.01376180e+00
  1.55396160e+01  3.59993360e+00  1.01376180e+00  2.70005800e-01  2.70005800e-01
  8.00000000e-01  8.45000000e-02  8.45000000e-02  1.87311370e+01  2.82539370e+00
  6.40121700e-01  1.61277800e-01  1.87311370e+01  2.82539370e+00  6.40121700e-01
  1.61277800e-01  3.04752490e+03  4.57369510e+02  1.03948690e+02  2.92101550e+01
  9.28666300e+00  3.16392700e+00  7.86827240e+00  1.88128850e+00  5.44249300e-01
  7.86827240e+00  1.88128850e+00  5.44249300e-01  1.68714400e-01  1.68714400e-01
  8.00000000e-01  4.38000000e-02  4.38000000e-02  3.04752490e+03  4.57369510e+02
  1.03948690e+02  2.92101550e+01  9.28666300e+00  3.16392700e+00  7.86827240e+00
  1.88128850e+00  5.44249300e-01  7.86827240e+00  1.88128850e+00  5.44249300e-01
  1.68714400e-01  1.68714400e-01  8.00000000e-01  4.38000000e-02  4.38000000e-02
  3.04752490e+03  4.57369510e+02  1.03948690e+02  2.92101550e+01  9.28666300e+00
  3.16392700e+00  7.86827240e+00  1.88128850e+00  5.44249300e-01  7.86827240e+00
  1.88128850e+00  5.44249300e-01  1.68714400e-01  1.68714400e-01  8.00000000e-01
  4.38000000e-02  4.38000000e-02  3.04752490e+03  4.57369510e+02  1.03948690e+02
  2.92101550e+01  9.28666300e+00  3.16392700e+00  7.86827240e+00  1.88128850e+00
  5.44249300e-01  7.86827240e+00  1.88128850e+00  5.44249300e-01  1.68714400e-01
  1.68714400e-01  8.00000000e-01  4.38000000e-02  4.38000000e-02  1.87311370e+01
  2.82539370e+00  6.40121700e-01  1.61277800e-01  1.87311370e+01  2.82539370e+00
  6.40121700e-01  1.61277800e-01  1.87311370e+01  2.82539370e+00  6.40121700e-01
  1.61277800e-01  3.04752490e+03  4.57369510e+02  1.03948690e+02  2.92101550e+01
  9.28666300e+00  3.16392700e+00  7.86827240e+00  1.88128850e+00  5.44249300e-01
  7.86827240e+00  1.88128850e+00  5.44249300e-01  1.68714400e-01  1.68714400e-01
  8.00000000e-01  4.38000000e-02  4.38000000e-02  1.87311370e+01  2.82539370e+00
  6.40121700e-01  1.61277800e-01  3.04752490e+03  4.57369510e+02  1.03948690e+02
  2.92101550e+01  9.28666300e+00  3.16392700e+00  7.86827240e+00  1.88128850e+00
  5.44249300e-01  7.86827240e+00  1.88128850e+00  5.44249300e-01  1.68714400e-01
  1.68714400e-01  8.00000000e-01  4.38000000e-02  4.38000000e-02  1.87311370e+01
  2.82539370e+00  6.40121700e-01  1.61277800e-01  1.87311370e+01  2.82539370e+00
  6.40121700e-01  1.61277800e-01  3.04752490e+03  4.57369510e+02  1.03948690e+02
  2.92101550e+01  9.28666300e+00  3.16392700e+00  7.86827240e+00  1.88128850e+00
  5.44249300e-01  7.86827240e+00  1.88128850e+00  5.44249300e-01  1.68714400e-01
  1.68714400e-01  8.00000000e-01  4.38000000e-02  4.38000000e-02  1.87311370e+01
  2.82539370e+00  6.40121700e-01  1.61277800e-01  1.87311370e+01  2.82539370e+00
  6.40121700e-01  1.61277800e-01  1.87311370e+01  2.82539370e+00  6.40121700e-01
  1.61277800e-01  1.87311370e+01  2.82539370e+00  6.40121700e-01  1.61277800e-01
  1.87311370e+01  2.82539370e+00  6.40121700e-01  1.61277800e-01  1.87311370e+01
  2.82539370e+00  6.40121700e-01  1.61277800e-01  1.87311370e+01  2.82539370e+00
  6.40121700e-01  1.61277800e-01  1.87311370e+01  2.82539370e+00  6.40121700e-01
  1.61277800e-01
Contraction coefficients                   R   N=         336
  1.83109981e-03  1.39500985e-02  6.84450927e-02  2.32714275e-01  4.70192950e-01
  3.58520862e-01 -1.10777504e-01 -1.48026305e-01  1.13076704e+00  7.08742995e-02
  3.39752798e-01  7.27158595e-01  1.00000000e+00  1.00000000e+00  1.00000000e+00
  1.00000000e+00  1.00000000e+00  1.83470016e-03  1.40373012e-02  6.88426061e-02
  2.32184421e-01  4.67941342e-01  3.62312032e-01 -1.19332409e-01 -1.60854212e-01
  1.14345648e+00  6.89990956e-02  3.16423980e-01  7.44308252e-01  1.00000000e+00
  1.00000000e+00  1.00000000e+00  1.00000000e+00  1.00000000e+00  1.83470016e-03
  1.40373012e-02  6.88426061e-02  2.32184421e-01  4.67941342e-01  3.62312032e-01
 -1.19332409e-01 -1.60854212e-01  1.14345648e+00  6.89990956e-02  3.16423980e-01
  7.44308252e-01  1.00000000e+00  1.00000000e+00  1.00000000e+00  1.00000000e+00
  1.00000000e+00  1.83479944e-03  1.39949958e-02  6.85869792e-02  2.32240930e-01
  4.69069858e-01  3.60454891e-01 -1.14961023e-01 -1.69118034e-01  1.14585223e+00
  6.75800232e-02  3.23907111e-01  7.40895255e-01  1.00000000e+00  1.00000000e+00
  1.00000000e+00  1.00000000e+00  1.00000000e+00  1.83470016e-03  1.40373012e-02
  6.88426061e-02  2.32184421e-01  4.67941342e-01  3.62312032e-01 -1.19332409e-01
 -1.60854212e-01  1.14345648e+00  6.89990956e-02  3.16423980e-01  7.44308252e-01
  1.00000000e+00  1.00000000e+00  1.00000000e+00  1.00000000e+00  1.00000000e+00
  1.83479944e-03  1.39949958e-02  6.85869792e-02  2.32240930e-01  4.69069858e-01
  3.60454891e-01 -1.14961023e-01 -1.69118034e-01  1.14585223e+00  6.75800232e-02
  3.23907111e-01  7.40895255e-01  1.00000000e+00  1.00000000e+00  1.00000000e+00
  1.00000000e+00  1.00000000e+00  1.83470016e-03  1.40373012e-02  6.88426061e-02
  2.32184421e-01  4.67941342e-01  3.62312032e-01 -1.19332409e-01 -1.60854212e-01
  1.14345648e+00  6.89990956e-02  3.16423980e-01  7.44308252e-01  1.00000000e+00
  1.00000000e+00  1.00000000e+00  1.00000000e+00  1.00000000e+00  1.83109981e-03
  1.39500985e-02  6.84450927e-02  2.32714275e-01  4.70192950e-01  3.58520862e-01
 -1.10777504e-01 -1.48026305e-01  1.13076704e+00  7.08742995e-02  3.39752798e-01
  7.27158595e-01  1.00000000e+00  1.00000000e+00  1.00000000e+00  1.00000000e+00
  1.00000000e+00  1.83109981e-03  1.39500985e-02  6.84450927e-02  2.32714275e-01
  4.70192950e-01  3.58520862e-01 -1.10777504e-01 -1.48026305e-01  1.13076704e+00
  7.08742995e-02  3.39752798e-01  7.27158595e-01  1.00000000e+00  1.00000000e+00
  1.00000000e+00  1.00000000e+00  1.00000000e+00  3.34945995e-02  2.34726947e-01
  8.13757318e-01  1.00000000e+00  3.34945995e-02  2.34726947e-01  8.13757318e-01
  1.00000000e+00  1.83470016e-03  1.40373012e-02  6.88426061e-02  2.32184421e-01
  4.67941342e-01  3.62312032e-01 -1.19332409e-01 -1.60854212e-01  1.14345648e+00
  6.89990956e-02  3.16423980e-01  7.44308252e-01  1.00000000e+00  1.00000000e+00
  1.00000000e+00  1.00000000e+00  1.00000000e+00  1.83470016e-03  1.40373012e-02
  6.88426061e-02  2.32184421e-01  4.67941342e-01  3.62312032e-01 -1.19332409e-01
 -1.60854212e-01  1.14345648e+00  6.89990956e-02  3.16423980e-01  7.44308252e-01
  1.00000000e+00  1.00000000e+00  1.00000000e+00  1.00000000e+00  1.00000000e+00
  1.83470016e-03  1.40373012e-02  6.88426061e-02  2.32184421e-01  4.67941342e-01
  3.62312032e-01 -1.19332409e-01 -1.60854212e-01  1.14345648e+00  6.89990956e-02
  3.16423980e-01  7.44308252e-01  1.00000000e+00  1.00000000e+00  1.00000000e+00
  1.00000000e+00  1.00000000e+00  1.83470016e-03  1.40373012e-02  6.88426061e-02
  2.32184421e-01  4.67941342e-01  3.62312032e-01 -1.19332409e-01 -1.60854212e-01
  1.14345648e+00  6.89990956e-02  3.16423980e-01  7.44308252e-01  1.00000000e+00
  1.00000000e+00  1.00000000e+00  1.00000000e+00  1.00000000e+00  3.34945995e-02
  2.34726947e-01  8.13757318e-01  1.00000000e+00  3.34945995e-02  2.34726947e-01
  8.13757318e-01  1.00000000e+00  3.34945995e-02  2.34726947e-01  8.13757318e-01
  1.00000000e+00  1.83470016e-03  1.40373012e-02  6.88426061e-02  2.32184421e-01
  4.67941342e-01  3.62312032e-01 -1.19332409e-01 -1.60854212e-01  1.14345648e+00
  6.89990956e-02  3.16423980e-01  7.44308252e-01  1.00000000e+00  1.00000000e+00
  1.00000000e+00  1.00000000e+00  1.00000000e+00  3.34945995e-02  2.34726947e-01
  8.13757318e-01  1.00000000e+00  1.83470016e-03  1.40373012e-02  6.88426061e-02
  2.32184421e-01  4.67941342e-01  3.62312032e-01 -1.19332409e-01 -1.60854212e-01
  1.14345648e+00  6.89990956e-02  3.16423980e-01  7.44308252e-01  1.00000000e+00
  1.00000000e+00  1.00000000e+00  1.00000000e+00  1.00000000e+00  3.34945995e-02
  2.34726947e-01  8.13757318e-01  1.00000000e+00  3.34945995e-02  2.34726947e-01
  8.13757318e-01  1.00000000e+00  1.83470016e-03  1.40373012e-02  6.88426061e-02
  2.32184421e-01  4.67941342e-01  3.62312032e-01 -1.19332409e-01 -1.60854212e-01
  1.14345648e+00  6.89990956e-02  3.16423980e-01  7.44308252e-01  1.00000000e+00
  1.00000000e+00  1.00000000e+00  1.00000000e+00  1.00000000e+00  3.34945995e-02
  2.34726947e-01  8.13757318e-01  1.00000000e+00  3.34945995e-02  2.34726947e-01
  8.13757318e-01  1.00000000e+00  3.34945995e-02  2.34726947e-01  8.13757318e-01
  1.00000000e+00  3.34945995e-02  2.34726947e-01  8.13757318e-01  1.00000000e+00
  3.34945995e-02  2.34726947e-01  8.13757318e-01  1.00000000e+00  3.34945995e-02
  2.34726947e-01  8.13757318e-01  1.00000000e+00  3.34945995e-02  2.34726947e-01
  8.13757318e-01  1.00000000e+00  3.34945995e-02  2.34726947e-01  8.13757318e-01
  1.00000000e+00
Coordinates of each shell                  R   N=         480
  2.74571069e+00  1.54982898e+00  2.66389529e+00  2.74571069e+00  1.54982898e+00
  2.66389529e+00  2.74571069e+00  1.54982898e+00  2.66389529e+00  2.74571069e+00
  1.54982898e+00  2.66389529e+00  2.74571069e+00  1.54982898e+00  2.66389529e+00
  2.74571069e+00  1.54982898e+00  2.66389529e+00  2.74571069e+00  1.54982898e+00
  2.66389529e+00  2.74571069e+00  1.54982898e+00  2.66389529e+00 -6.39531928e-01
  5.02768166e-01 -2.34789948e-01 -6.39531928e-01  5.02768166e-01 -2.34789948e-01
 -6.39531928e-01  5.02768166e-01 -2.34789948e-01 -6.39531928e-01  5.02768166e-01
 -2.34789948e-01 -6.39531928e-01  5.02768166e-01 -2.34789948e-01 -6.39531928e-01
  5.02768166e-01 -2.34789948e-01 -6.39531928e-01  5.02768166e-01 -2.34789948e-01
 -6.39531928e-01  5.02768166e-01 -2.34789948e-01  2.02383524e+00  1.37880625e+00
  4.84811252e-01  2.02383524e+00  1.37880625e+00  4.84811252e-01  2.02383524e+00
  1.37880625e+00  4.84811252e-01  2.02383524e+00  1.37880625e+00  4.84811252e-01
  2.02383524e+00  1.37880625e+00  4.84811252e-01  2.02383524e+00  1.37880625e+00
  4.84811252e-01  2.02383524e+00  1.37880625e+00  4.84811252e-01  2.02383524e+00
  1.37880625e+00  4.84811252e-01  3.65873404e+00  2.03612474e+00 -1.46625379e+00
  3.65873404e+00  2.03612474e+00 -1.46625379e+00  3.65873404e+00  2.03612474e+00
 -1.46625379e+00  3.65873404e+00  2.03612474e+00 -1.46625379e+00  3.65873404e+00
  2.03612474e+00 -1.46625379e+00  3.65873404e+00  2.03612474e+00 -1.46625379e+00
  3.65873404e+00  2.03612474e+00 -1.46625379e+00  3.65873404e+00  2.03612474e+00
 -1.46625379e+00  3.21701655e+00  1.96550359e+00 -4.04946762e+00  3.21701655e+00
  1.96550359e+00 -4.04946762e+00  3.21701655e+00  1.96550359e+00 -4.04946762e+00
  3.21701655e+00  1.96550359e+00 -4.04946762e+00  3.21701655e+00  1.96550359e+00
 -4.04946762e+00  3.21701655e+00  1.96550359e+00 -4.04946762e+00  3.21701655e+00
  1.96550359e+00 -4.04946762e+00  3.21701655e+00  1.96550359e+00 -4.04946762e+00
  8.42118508e-01  1.07419849e+00 -4.71278399e+00  8.42118508e-01  1.07419849e+00
 -4.71278399e+00  8.42118508e-01  1.07419849e+00 -4.71278399e+00  8.42118508e-01
  1.07419849e+00 -4.71278399e+00  8.42118508e-01  1.07419849e+00 -4.71278399e+00
  8.42118508e-01  1.07419849e+00 -4.71278399e+00  8.42118508e-01  1.07419849e+00
 -4.71278399e+00  8.42118508e-01  1.07419849e+00 -4.71278399e+00 -1.06854275e+00
  2.58510117e-01 -3.11443123e+00 -1.06854275e+00  2.58510117e-01 -3.11443123e+00
 -1.06854275e+00  2.58510117e-01 -3.11443123e+00 -1.06854275e+00  2.58510117e-01
 -3.11443123e+00 -1.06854275e+00  2.58510117e-01 -3.11443123e+00 -1.06854275e+00
  2.58510117e-01 -3.11443123e+00 -1.06854275e+00  2.58510117e-01 -3.11443123e+00
 -1.06854275e+00  2.58510117e-01 -3.11443123e+00  4.78279977e+00  2.61655713e+00
 -5.60175867e+00  4.78279977e+00  2.61655713e+00 -5.60175867e+00  4.78279977e+00
  2.61655713e+00 -5.60175867e+00  4.78279977e+00  2.61655713e+00 -5.60175867e+00
  4.78279977e+00  2.61655713e+00 -5.60175867e+00  4.78279977e+00  2.61655713e+00
 -5.60175867e+00  4.78279977e+00  2.61655713e+00 -5.60175867e+00  4.78279977e+00
  2.61655713e+00 -5.60175867e+00 -3.03092973e+00 -5.61446080e-01 -3.99401054e+00
 -3.03092973e+00 -5.61446080e-01 -3.99401054e+00 -3.03092973e+00 -5.61446080e-01
 -3.99401054e+00 -3.03092973e+00 -5.61446080e-01 -3.99401054e+00 -3.03092973e+00
 -5.61446080e-01 -3.99401054e+00 -3.03092973e+00 -5.61446080e-01 -3.99401054e+00
 -3.03092973e+00 -5.61446080e-01 -3.99401054e+00 -3.03092973e+00 -5.61446080e-01
 -3.99401054e+00  4.89728016e-01  9.73887251e-01 -6.59734183e+00  4.89728016e-01
  9.73887251e-01 -6.59734183e+00  5.39891682e+00  2.65695528e+00 -9.44279564e-01
  5.39891682e+00  2.65695528e+00 -9.44279564e-01 -1.23591234e+00 -2.18441557e+00
  9.57203315e-01 -1.23591234e+00 -2.18441557e+00  9.57203315e-01 -1.23591234e+00
 -2.18441557e+00  9.57203315e-01 -1.23591234e+00 -2.18441557e+00  9.57203315e-01
 -1.23591234e+00 -2.18441557e+00  9.57203315e-01 -1.23591234e+00 -2.18441557e+00
  9.57203315e-01 -1.23591234e+00 -2.18441557e+00  9.57203315e-01 -1.23591234e+00
 -2.18441557e+00  9.57203315e-01  6.73485690e-01 -4.17429781e+00  3.29931066e-02
  6.73485690e-01 -4.17429781e+00  3.29931066e-02  6.73485690e-01 -4.17429781e+00
  3.29931066e-02  6.73485690e-01 -4.17429781e+00  3.29931066e-02  6.73485690e-01
 -4.17429781e+00  3.29931066e-02  6.73485690e-01 -4.17429781e+00  3.29931066e-02
  6.73485690e-01 -4.17429781e+00  3.29931066e-02  6.73485690e-01 -4.17429781e+00
  3.29931066e-02 -2.60584935e+00  2.45699115e+00  5.94460645e-01 -2.60584935e+00
  2.45699115e+00  5.94460645e-01 -2.60584935e+00  2.45699115e+00  5.94460645e-01
 -2.60584935e+00  2.45699115e+00  5.94460645e-01 -2.60584935e+00  2.45699115e+00
  5.94460645e-01 -2.60584935e+00  2.45699115e+00  5.94460645e-01 -2.60584935e+00
  2.45699115e+00  5.94460645e-01 -2.60584935e+00  2.45699115e+00  5.94460645e-01
 -2.21825729e+00  4.59872215e+00  1.86814292e+00 -2.21825729e+00  4.59872215e+00
  1.86814292e+00 -2.21825729e+00  4.59872215e+00  1.86814292e+00 -2.21825729e+00
  4.59872215e+00  1.86814292e+00 -2.21825729e+00  4.59872215e+00  1.86814292e+00
 -2.21825729e+00  4.59872215e+00  1.86814292e+00 -2.21825729e+00  4.59872215e+00
  1.86814292e+00 -2.21825729e+00  4.59872215e+00  1.86814292e+00  2.57607365e+00
 -3.79587141e+00  7.65391068e-01  2.57607365e+00 -3.79587141e+00  7.65391068e-01
  7.74300091e-01 -4.26525108e+00 -2.03482811e+00  7.74300091e-01 -4.26525108e+00
 -2.03482811e+00  1.24854286e-01 -6.05745210e+00  6.87767992e-01  1.24854286e-01
 -6.05745210e+00  6.87767992e-01 -1.47871719e+00 -2.16910813e+00  3.86178147e+00
 -1.47871719e+00 -2.16910813e+00  3.86178147e+00 -1.47871719e+00 -2.16910813e+00
  3.86178147e+00 -1.47871719e+00 -2.16910813e+00  3.86178147e+00 -1.47871719e+00
 -2.16910813e+00  3.86178147e+00 -1.47871719e+00 -2.16910813e+00  3.86178147e+00
 -1.47871719e+00 -2.16910813e+00  3.86178147e+00 -1.47871719e+00 -2.16910813e+00
  3.86178147e+00 -3.09170104e+00 -2.65886165e+00  1.64105054e-01 -3.09170104e+00
 -2.65886165e+00  1.64105054e-01 -2.92478656e+00 -4.46675327e+00  4.90099818e+00
 -2.92478656e+00 -4.46675327e+00  4.90099818e+00 -2.92478656e+00 -4.46675327e+00
  4.90099818e+00 -2.92478656e+00 -4.46675327e+00  4.90099818e+00 -2.92478656e+00
 -4.46675327e+00  4.90099818e+00 -2.92478656e+00 -4.46675327e+00  4.90099818e+00
 -2.92478656e+00 -4.46675327e+00  4.90099818e+00 -2.92478656e+00 -4.46675327e+00
  4.90099818e+00 -2.46663519e+00 -4.50114127e-01  4.46382373e+00 -2.46663519e+00
 -4.50114127e-01  4.46382373e+00  4.02472853e-01 -2.07715775e+00  4.72427571e+00
  4.02472853e-01 -2.07715775e+00  4.72427571e+00 -3.21676042e+00 -4.37349317e+00
  7.78342345e+00 -3.21676042e+00 -4.37349317e+00  7.78342345e+00 -3.21676042e+00
 -4.37349317e+00  7.78342345e+00 -3.21676042e+00 -4.37349317e+00  7.78342345e+00
 -3.21676042e+00 -4.37349317e+00  7.78342345e+00 -3.21676042e+00 -4.37349317e+00
  7.78342345e+00 -3.21676042e+00 -4.37349317e+00  7.78342345e+00 -3.21676042e+00
 -4.37349317e+00  7.78342345e+00 -1.95834863e+00 -6.22773532e+00  4.37924283e+00
 -1.95834863e+00 -6.22773532e+00  4.37924283e+00 -4.80561922e+00 -4.55318701e+00
  4.01995884e+00 -4.80561922e+00 -4.55318701e+00  4.01995884e+00 -1.36808429e+00
 -4.34579341e+00  8.72254724e+00 -1.36808429e+00 -4.34579341e+00  8.72254724e+00
 -4.25807730e+00 -6.02098467e+00  8.48742757e+00 -4.25807730e+00 -6.02098467e+00
  8.48742757e+00 -4.24558620e+00 -2.67386458e+00  8.37839616e+00 -4.24558620e+00
 -2.67386458e+00  8.37839616e+00 -4.50673287e+00  1.95430317e+00 -1.20784574e-02
 -4.50673287e+00  1.95430317e+00 -1.20784574e-02 -3.73960956e-01  5.18692933e+00
  2.54871274e+00 -3.73960956e-01  5.18692933e+00  2.54871274e+00 -3.80235452e+00
  5.82816907e+00  2.31211592e+00 -3.80235452e+00  5.82816907e+00  2.31211592e+00
Total Energy                               R     -7.640441063674501e+02
Alpha Orbital Energies                     R   N=         336
 -1.91704431e+01 -1.91699567e+01 -1.91695961e+01 -1.44213234e+01 -1.44204128e+01
 -1.03721866e+01 -1.03423049e+01 -1.03418972e+01 -1.02581914e+01 -1.02256571e+01
 -1.02206328e+01 -1.02085554e+01 -1.01947065e+01 -1.01895092e+01 -1.01855885e+01
 -1.01801468e+01 -1.11326264e+00 -1.08706214e+00 -1.08351227e+00 -9.88778160e-01