Generated by Psi4
     FORCE                           RHF                       TESTBAS
Number of atoms                            I               34
Charge                                     I                0
Multiplicity                               I                1
Number of electrons                        I              118
Number of alpha electrons                  I               59
Number of beta electrons                   I               59
Number of basis functions                  I              340
Number of independent functions            I              340
Atomic numbers                             I   N=          34
           6           6           6           6           6           6
           7           6           6           1           1           1
           1           1           6           6           1           1
           7           1           1           6           6           1
           1           1           1           1           1           8
           6           1           1           1
Nuclear charges                            R   N=          34
  6.00000000e+00  6.00000000e+00  6.00000000e+00  6.00000000e+00  6.00000000e+00
  6.00000000e+00  7.00000000e+00  6.00000000e+00  6.00000000e+00  1.00000000e+00
  1.00000000e+00  1.00000000e+00  1.00000000e+00  1.00000000e+00  6.00000000e+00
  6.00000000e+00  1.00000000e+00  1.00000000e+00  7.00000000e+00  1.00000000e+00
  1.00000000e+00  6.00000000e+00  6.00000000e+00  1.00000000e+00  1.00000000e+00
  1.00000000e+00  1.00000000e+00  1.00000000e+00  1.00000000e+00  8.00000000e+00
  6.00000000e+00  1.00000000e+00  1.00000000e+00  1.00000000e+00
Current cartesian coordinates              R   N=         102
 -1.11776742e+00 -1.65267463e+00 -2.01101113e+00  2.33692299e+00  9.25877559e-01
  4.28728007e-01  9.11908067e-01  1.41499133e-01 -1.68877871e+00  4.22907992e+00
  2.71765846e+00  7.69033213e-02  4.72663538e+00  3.74790293e+00 -2.34415143e+00
 -1.71798854e+00 -1.61983714e+00 -4.54257569e+00 -1.95549965e-01  8.51133735e-02
 -5.80630265e+00  1.44420662e+00  1.19070414e+00 -4.09720753e+00  3.34845923e+00
  2.99787740e+00 -4.44280271e+00  6.22223237e+00  5.14241974e+00 -2.51009342e+00
  3.74944787e+00  3.79753157e+00 -6.29276371e+00  1.94389190e+00  1.34564983e-01
  2.27758117e+00 -2.45280591e-01  4.30311863e-01 -7.67972382e+00 -3.12389532e+00
 -2.70525594e+00 -5.55730037e+00 -2.35386602e+00 -3.23512484e+00  2.74539111e-04
 -4.23367785e+00 -1.72808428e+00  1.63829633e+00 -8.86699652e-01 -4.08260453e+00
  1.19789767e+00 -3.38415633e+00 -4.81068631e+00 -8.68168795e-01 -5.60153628e+00
 -3.29081313e+00  3.46999869e+00 -5.63646803e+00 -8.73662744e-01  3.76244283e-01
 -3.24048207e+00 -1.42982909e-01  2.58574682e+00 -3.99535316e+00 -4.19416738e+00
  5.51921169e+00 -7.79566555e+00 -1.95838211e+00  4.47431132e+00 -9.04903036e+00
 -1.40033434e+00  2.92454183e+00 -7.28157169e+00 -2.34542580e-01  5.55163877e+00
 -8.85302359e+00 -3.21182687e+00  5.73865296e+00 -2.44374551e+00 -5.34159454e+00
  4.78021748e+00 -5.10792074e+00 -5.38835175e+00  6.79255937e+00 -3.17413875e+00
 -2.62817723e+00  6.64883926e+00  5.75081188e+00  3.64024331e+00  1.97109735e+00
  5.38008133e+00  2.71576719e+00  4.45805303e+00  3.46926951e+00  3.14389067e+00
  5.14898920e+00  6.76760308e+00  3.68832819e+00  5.63538785e+00  5.70381282e+00
  6.67154733e-01  4.56162800e+00
Integer atomic weights                     I   N=          34
          12          12          12          12          12          12
          14          12          12           1           1           1
           1           1          12          12           1           1
          14           1           1          12          12           1
           1           1           1           1           1          15
          12           1           1           1
Real atomic weights                        R   N=          34
  1.20000000e+01  1.20000000e+01  1.20000000e+01  1.20000000e+01  1.20000000e+01
  1.20000000e+01  1.40030740e+01  1.20000000e+01  1.20000000e+01  1.00782503e+00
  1.00782503e+00  1.00782503e+00  1.00782503e+00  1.00782503e+00  1.20000000e+01
  1.20000000e+01  1.00782503e+00  1.00782503e+00  1.40030740e+01  1.00782503e+00
  1.00782503e+00  1.20000000e+01  1.20000000e+01  1.00782503e+00  1.00782503e+00
  1.00782503e+00  1.00782503e+00  1.00782503e+00  1.00782503e+00  1.59949146e+01
  1.20000000e+01  1.00782503e+00  1.00782503e+00  1.00782503e+00
Number of primitive shells                 I              344
Number of contracted shells                I              164
Pure/Cartesian d shells                    I                1
Pure/Cartesian f shells                    I                1
Highest angular momentum                   I                2
Largest degree of contraction              I                6
Shell types                                I   N=         164
           0           0           1           0           1           2
           0           1           0           0           1           0
           1           2           0           1           0           0
           1           0           1           2           0           1
           0           0           1           0           1           2
           0           1           0           0           1           0
           1           2           0           1           0           0
           1           0           1           2           0           1
           0           0           1           0           1           2
           0           1           0           0           1           0
           1           2           0           1           0           0
           1           0           1           2           0           1
           0           0           0           0           0           0
           0           0           0           0           0           0
           1           0           1           2           0           1
           0           0           1           0           1           2
           0           1           0           0           0           0
           0           0           1           0           1           2
           0           1           0           0           0           0
           0           0           1           0           1           2
           0           1           0           0           1           0
           1           2           0           1           0           0
           0           0           0           0           0           0
           0           0           0           0           0           0
           1           0           1           2           0           1
           0           0           1           0           1           2
           0           1           0           0           0           0
           0           0
Number of primitives per shell             I   N=         164
           6           3           3           1           1           1
           1           1           6           3           3           1
           1           1           1           1           6           3
           3           1           1           1           1           1
           6           3           3           1           1           1
           1           1           6           3           3           1
           1           1           1           1           6           3
           3           1           1           1           1           1
           6           3           3           1           1           1
           1           1           6           3           3           1
           1           1           1           1           6           3
           3           1           1           1           1           1
           3           1           3           1           3           1
           3           1           3           1           6           3
           3           1           1           1           1           1
           6           3           3           1           1           1
           1           1           3           1           3           1
           6           3           3           1           1           1
           1           1           3           1           3           1
           6           3           3           1           1           1
           1           1           6           3           3           1
           1           1           1           1           3           1
           3           1           3           1           3           1
           3           1           3           1           6           3
           3           1           1           1           1           1
           6           3           3           1           1           1
           1           1           3           1           3           1
           3           1
Shell to atom map                          I   N=         164
           1           1           1           1           1           1
           1           1           2           2           2           2
           2           2           2           2           3           3
           3           3           3           3           3           3
           4           4           4           4           4           4
           4           4           5           5           5           5
           5           5           5           5           6           6
           6           6           6           6           6           6
           7           7           7           7           7           7
           7           7           8           8           8           8
           8           8           8           8           9           9
           9           9           9           9           9           9
          10          10          11          11          12          12
          13          13          14          14          15          15
          15          15          15          15          15          15
          16          16          16          16          16          16
          16          16          17          17          18          18
          19          19          19          19          19          19
          19          19          20          20          21          21
          22          22          22          22          22          22
          22          22          23          23          23          23
          23          23          23          23          24          24
          25          25          26          26          27          27
          28          28          29          29          30          30
          30          30          30          30          30          30
          31          31          31          31          31          31
          31          31          32          32          33          33
          34          34
Primitive exponents                        R   N=         344
  3.04752490e+03  4.57369510e+02  1.03948690e+02  2.92101550e+01  9.28666300e+00
  3.16392700e+00  7.86827240e+00  1.88128850e+00  5.44249300e-01  7.86827240e+00
  1.88128850e+00  5.44249300e-01  1.68714400e-01  1.68714400e-01  8.00000000e-01
  4.38000000e-02  4.38000000e-02  3.04752490e+03  4.57369510e+02  1.03948690e+02
  2.92101550e+01  9.28666300e+00  3.16392700e+00  7.86827240e+00  1.88128850e+00
  5.44249300e-01  7.86827240e+00  1.88128850e+00  5.44249300e-01  1.68714400e-01
  1.68714400e-01  8.00000000e-01  4.38000000e-02  4.38000000e-02  3.04752490e+03
  4.57369510e+02  1.03948690e+02  2.92101550e+01  9.28666300e+00  3.16392700e+00
  7.86827240e+00  1.88128850e+00  5.44249300e-01  7.86827240e+00  1.88128850e+00
  5.44249300e-01  1.68714400e-01  1.68714400e-01  8.00000000e-01  4.38000000e-02
  4.38000000e-02  3.04752490e+03  4.57369510e+02  1.03948690e+02  2.92101550e+01
  9.28666300e+00  3.16392700e+00  7.86827240e+00  1.88128850e+00  5.44249300e-01
  7.86827240e+00  1.88128850e+00  5.44249300e-01  1.68714400e-01  1.68714400e-01
  8.00000000e-01  4.38000000e-02  4.38000000e-02  3.04752490e+03  4.57369510e+02
  1.03948690e+02  2.92101550e+01  9.28666300e+00  3.16392700e+00  7.86827240e+00
  1.88128850e+00  5.44249300e-01  7.86827240e+00  1.88128850e+00  5.44249300e-01
  1.68714400e-01  1.68714400e-01  8.00000000e-01  4.38000000e-02  4.38000000e-02
  3.04752490e+03  4.57369510e+02  1.03948690e+02  2.92101550e+01  9.28666300e+00
  3.16392700e+00  7.86827240e+00  1.88128850e+00  5.44249300e-01  7.86827240e+00
  1.88128850e+00  5.44249300e-01  1.68714400e-01  1.68714400e-01  8.00000000e-01
  4.38000000e-02  4.38000000e-02  4.17351100e+03  6.27457900e+02  1.42902100e+02
  4.02343300e+01  1.28202100e+01  4.39043700e+00  1.16263580e+01  2.71628000e+00
  7.72218000e-01  1.16263580e+01  2.71628000e+00  7.72218000e-01  2.12031300e-01
  2.12031300e-01  8.00000000e-01  6.39000000e-02  6.39000000e-02  3.04752490e+03
  4.57369510e+02  1.03948690e+02  2.92101550e+01  9.28666300e+00  3.16392700e+00
  7.86827240e+00  1.88128850e+00  5.44249300e-01  7.86827240e+00  1.88128850e+00
  5.44249300e-01  1.68714400e-01  1.68714400e-01  8.00000000e-01  4.38000000e-02
  4.38000000e-02  3.04752490e+03  4.57369510e+02  1.03948690e+02  2.92101550e+01
  9.28666300e+00  3.16392700e+00  7.86827240e+00  1.88128850e+00  5.44249300e-01
  7.86827240e+00  1.88128850e+00  5.44249300e-01  1.68714400e-01  1.68714400e-01
  8.00000000e-01  4.38000000e-02  4.38000000e-02  1.87311370e+01  2.82539370e+00
  6.40121700e-01  1.61277800e-01  1.87311370e+01  2.82539370e+00  6.40121700e-01
  1.61277800e-01  1.87311370e+01  2.82539370e+00  6.40121700e-01  1.61277800e-01
  1.87311370e+01  2.82539370e+00  6.40121700e-01  1.61277800e-01  1.87311370e+01
  2.82539370e+00  6.40121700e-01  1.61277800e-01  3.04752490e+03  4.57369510e+02
  1.03948690e+02  2.92101550e+01  9.28666300e+00  3.16392700e+00  7.86827240e+00
  1.88128850e+00  5.44249300e-01  7.86827240e+00  1.88128850e+00  5.44249300e-01
  1.68714400e-01  1.68714400e-01  8.00000000e-01  4.38000000e-02  4.38000000e-02
  3.04752490e+03  4.57369510e+02  1.03948690e+02  2.92101550e+01  9.28666300e+00
  3.16392700e+00  7.86827240e+00  1.88128850e+00  5.44249300e-01  7.86827240e+00
  1.88128850e+00  5.44249300e-01  1.68714400e-01  1.68714400e-01  8.00000000e-01
  4.38000000e-02  4.38000000e-02  1.87311370e+01  2.82539370e+00  6.40121700e-01
  1.61277800e-01  1.87311370e+01  2.82539370e+00  6.40121700e-01  1.61277800e-01
  4.17351100e+03  6.27457900e+02  1.42902100e+02  4.02343300e+01  1.28202100e+01
  4.39043700e+00  1.16263580e+01  2.71628000e+00  7.72218000e-01  1.16263580e+01
  2.71628000e+00  7.72218000e-01  2.12031300e-01  2.12031300e-01  8.00000000e-01
  6.39000000e-02  6.39000000e-02  1.87311370e+01  2.82539370e+00  6.40121700e-01
  1.61277800e-01  1.87311370e+01  2.82539370e+00  6.40121700e-01  1.61277800e-01
  3.04752490e+03  4.57369510e+02  1.03948690e+02  2.92101550e+01  9.28666300e+00
  3.16392700e+00  7.86827240e+00  1.88128850e+00  5.44249300e-01  7.86827240e+00
  1.88128850e+00  5.44249300e-01  1.68714400e-01  1.68714400e-01  8.00000000e-01
  4.38000000e-02  4.38000000e-02  3.04752490e+03  4.57369510e+02  1.03948690e+02
  2.92101550e+01  9.28666300e+00  3.16392700e+00  7.86827240e+00  1.88128850e+00
  5.44249300e-01  7.86827240e+00  1.88128850e+00  5.44249300e-01  1.68714400e-01
  1.68714400e-01  8.00000000e-01  4.38000000e-02  4.38000000e-02  1.87311370e+01
  2.82539370e+00  6.40121700e-01  1.61277800e-01  1.87311370e+01  2.82539370e+00
  6.40121700e-01  1.61277800e-01  1.87311370e+01  2.82539370e+00  6.40121700e-01
  1.61277800e-01  1.87311370e+01  2.82539370e+00  6.40121700e-01  1.61277800e-01
  1.87311370e+01  2.82539370e+00  6.40121700e-01  1.61277800e-01  1.87311370e+01
  2.82539370e+00  6.40121700e-01  1.61277800e-01  5.48467170e+03  8.25234950e+02
  1.88046960e+02  5.29645000e+01  1.68975700e+01  5.79963530e+00  1.55396160e+01
  3.59993360e+00  1.01376180e+00  1.55396160e+01  3.59993360e+00  1.01376180e+00
  2.70005800e-01  2.70005800e-01  8.00000000e-01  8.45000000e-02  8.45000000e-02
  3.04752490e+03  4.57369510e+02  1.03948690e+02  2.92101550e+01  9.28666300e+00
  3.16392700e+00  7.86827240e+00  1.88128850e+00  5.44249300e-01  7.86827240e+00
  1.88128850e+00  5.44249300e-01  1.68714400e-01  1.68714400e-01  8.00000000e-01
  4.38000000e-02  4.38000000e-02  1.87311370e+01  2.82539370e+00  6.40121700e-01
  1.61277800e-01  1.87311370e+01  2.82539370e+00  6.40121700e-01  1.61277800e-01
  1.87311370e+01  2.82539370e+00  6.40121700e-01  1.61277800e-01
Contraction coefficients                   R   N=         344
  1.83470016e-03  1.40373012e-02  6.88426061e-02  2.32184421e-01  4.67941342e-01
  3.62312032e-01 -1.19332409e-01 -1.60854212e-01  1.14345648e+00  6.89990956e-02
  3.16423980e-01  7.44308252e-01  1.00000000e+00  1.00000000e+00  1.00000000e+00
  1.00000000e+00  1.00000000e+00  1.83470016e-03  1.40373012e-02  6.88426061e-02
  2.32184421e-01  4.67941342e-01  3.62312032e-01 -1.19332409e-01 -1.60854212e-01
  1.14345648e+00  6.89990956e-02  3.16423980e-01  7.44308252e-01  1.00000000e+00
  1.00000000e+00  1.00000000e+00  1.00000000e+00  1.00000000e+00  1.83470016e-03
  1.40373012e-02  6.88426061e-02  2.32184421e-01  4.67941342e-01  3.62312032e-01
 -1.19332409e-01 -1.60854212e-01  1.14345648e+00  6.89990956e-02  3.16423980e-01
  7.44308252e-01  1.00000000e+00  1.00000000e+00  1.00000000e+00  1.00000000e+00
  1.00000000e+00  1.83470016e-03  1.40373012e-02  6.88426061e-02  2.32184421e-01
  4.67941342e-01  3.62312032e-01 -1.19332409e-01 -1.60854212e-01  1.14345648e+00
  6.89990956e-02  3.16423980e-01  7.44308252e-01  1.00000000e+00  1.00000000e+00
  1.00000000e+00  1.00000000e+00  1.00000000e+00  1.83470016e-03  1.40373012e-02
  6.88426061e-02  2.32184421e-01  4.67941342e-01  3.62312032e-01 -1.19332409e-01
 -1.60854212e-01  1.14345648e+00  6.89990956e-02  3.16423980e-01  7.44308252e-01
  1.00000000e+00  1.00000000e+00  1.00000000e+00  1.00000000e+00  1.00000000e+00
  1.83470016e-03  1.40373012e-02  6.88426061e-02  2.32184421e-01  4.67941342e-01
  3.62312032e-01 -1.19332409e-01 -1.60854212e-01  1.14345648e+00  6.89990956e-02
  3.16423980e-01  7.44308252e-01  1.00000000e+00  1.00000000e+00  1.00000000e+00
  1.00000000e+00  1.00000000e+00  1.83479944e-03  1.39949958e-02  6.85869792e-02
  2.32240930e-01  4.69069858e-01  3.60454891e-01 -1.14961023e-01 -1.69118034e-01
  1.14585223e+00  6.75800232e-02  3.23907111e-01  7.40895255e-01  1.00000000e+00
  1.00000000e+00  1.00000000e+00  1.00000000e+00  1.00000000e+00  1.83470016e-03
  1.40373012e-02  6.88426061e-02  2.32184421e-01  4.67941342e-01  3.62312032e-01
 -1.19332409e-01 -1.60854212e-01  1.14345648e+00  6.89990956e-02  3.16423980e-01
  7.44308252e-01  1.00000000e+00  1.00000000e+00  1.00000000e+00  1.00000000e+00
  1.00000000e+00  1.83470016e-03  1.40373012e-02  6.88426061e-02  2.32184421e-01
  4.67941342e-01  3.62312032e-01 -1.19332409e-01 -1.60854212e-01  1.14345648e+00
  6.89990956e-02  3.16423980e-01  7.44308252e-01  1.00000000e+00  1.00000000e+00
  1.00000000e+00  1.00000000e+00  1.00000000e+00  3.34945995e-02  2.34726947e-01
  8.13757318e-01  1.00000000e+00  3.34945995e-02  2.34726947e-01  8.13757318e-01
  1.00000000e+00  3.34945995e-02  2.34726947e-01  8.13757318e-01  1.00000000e+00
  3.34945995e-02  2.34726947e-01  8.13757318e-01  1.00000000e+00  3.34945995e-02
  2.34726947e-01  8.13757318e-01  1.00000000e+00  1.83470016e-03  1.40373012e-02
  6.88426061e-02  2.32184421e-01  4.67941342e-01  3.62312032e-01 -1.19332409e-01
 -1.60854212e-01  1.14345648e+00  6.89990956e-02  3.16423980e-01  7.44308252e-01
  1.00000000e+00  1.00000000e+00  1.00000000e+00  1.00000000e+00  1.00000000e+00
  1.83470016e-03  1.40373012e-02  6.88426061e-02  2.32184421e-01  4.67941342e-01
  3.62312032e-01 -1.19332409e-01 -1.60854212e-01  1.14345648e+00  6.89990956e-02
  3.16423980e-01  7.44308252e-01  1.00000000e+00  1.00000000e+00  1.00000000e+00
  1.00000000e+00  1.00000000e+00  3.34945995e-02  2.34726947e-01  8.13757318e-01
  1.00000000e+00  3.34945995e-02  2.34726947e-01  8.13757318e-01  1.00000000e+00
  1.83479944e-03  1.39949958e-02  6.85869792e-02  2.32240930e-01  4.69069858e-01
  3.60454891e-01 -1.14961023e-01 -1.69118034e-01  1.14585223e+00  6.75800232e-02
  3.23907111e-01  7.40895255e-01  1.00000000e+00  1.00000000e+00  1.00000000e+00
  1.00000000e+00  1.00000000e+00  3.34945995e-02  2.34726947e-01  8.13757318e-01
  1.00000000e+00  3.34945995e-02  2.34726947e-01  8.13757318e-01  1.00000000e+00
  1.83470016e-03  1.40373012e-02  6.88426061e-02  2.32184421e-01  4.67941342e-01
  3.62312032e-01 -1.19332409e-01 -1.60854212e-01  1.14345648e+00  6.89990956e-02
  3.16423980e-01  7.44308252e-01  1.00000000e+00  1.00000000e+00  1.00000000e+00
  1.00000000e+00  1.00000000e+00  1.83470016e-03  1.40373012e-02  6.88426061e-02
  2.32184421e-01  4.67941342e-01  3.62312032e-01 -1.19332409e-01 -1.60854212e-01
  1.14345648e+00  6.89990956e-02  3.16423980e-01  7.44308252e-01  1.00000000e+00
  1.00000000e+00  1.00000000e+00  1.00000000e+00  1.00000000e+00  3.34945995e-02
  2.34726947e-01  8.13757318e-01  1.00000000e+00  3.34945995e-02  2.34726947e-01
  8.13757318e-01  1.00000000e+00  3.34945995e-02  2.34726947e-01  8.13757318e-01
  1.00000000e+00  3.34945995e-02  2.34726947e-01  8.13757318e-01  1.00000000e+00
  3.34945995e-02  2.34726947e-01  8.13757318e-01  1.00000000e+00  3.34945995e-02
  2.34726947e-01  8.13757318e-01  1.00000000e+00  1.83109981e-03  1.39500985e-02
  6.84450927e-02  2.32714275e-01  4.70192950e-01  3.58520862e-01 -1.10777504e-01
 -1.48026305e-01  1.13076704e+00  7.08742995e-02  3.39752798e-01  7.27158595e-01
  1.00000000e+00  1.00000000e+00  1.00000000e+00  1.00000000e+00  1.00000000e+00
  1.83470016e-03  1.40373012e-02  6.88426061e-02  2.32184421e-01  4.67941342e-01
  3.62312032e-01 -1.19332409e-01 -1.60854212e-01  1.14345648e+00  6.89990956e-02
  3.16423980e-01  7.44308252e-01  1.00000000e+00  1.00000000e+00  1.00000000e+00
  1.00000000e+00  1.00000000e+00  3.34945995e-02  2.34726947e-01  8.13757318e-01
  1.00000000e+00  3.34945995e-02  2.34726947e-01  8.13757318e-01  1.00000000e+00
  3.34945995e-02  2.34726947e-01  8.13757318e-01  1.00000000e+00
Coordinates of each shell                  R   N=         492
 -1.11776742e+00 -1.65267463e+00 -2.01101113e+00 -1.11776742e+00 -1.65267463e+00
 -2.01101113e+00 -1.11776742e+00 -1.65267463e+00 -2.01101113e+00 -1.11776742e+00
 -1.65267463e+00 -2.01101113e+00 -1.11776742e+00 -1.65267463e+00 -2.01101113e+00
 -1.11776742e+00 -1.65267463e+00 -2.01101113e+00 -1.11776742e+00 -1.65267463e+00
 -2.01101113e+00 -1.11776742e+00 -1.65267463e+00 -2.01101113e+00  2.33692299e+00
  9.25877559e-01  4.28728007e-01  2.33692299e+00  9.25877559e-01  4.28728007e-01
  2.33692299e+00  9.25877559e-01  4.28728007e-01  2.33692299e+00  9.25877559e-01
  4.28728007e-01  2.33692299e+00  9.25877559e-01  4.28728007e-01  2.33692299e+00
  9.25877559e-01  4.28728007e-01  2.33692299e+00  9.25877559e-01  4.28728007e-01
  2.33692299e+00  9.25877559e-01  4.28728007e-01  9.11908067e-01  1.41499133e-01
 -1.68877871e+00  9.11908067e-01  1.41499133e-01 -1.68877871e+00  9.11908067e-01
  1.41499133e-01 -1.68877871e+00  9.11908067e-01  1.41499133e-01 -1.68877871e+00
  9.11908067e-01  1.41499133e-01 -1.68877871e+00  9.11908067e-01  1.41499133e-01
 -1.68877871e+00  9.11908067e-01  1.41499133e-01 -1.68877871e+00  9.11908067e-01
  1.41499133e-01 -1.68877871e+00  4.22907992e+00  2.71765846e+00  7.69033213e-02
  4.22907992e+00  2.71765846e+00  7.69033213e-02  4.22907992e+00  2.71765846e+00
  7.69033213e-02  4.22907992e+00  2.71765846e+00  7.69033213e-02  4.22907992e+00
  2.71765846e+00  7.69033213e-02  4.22907992e+00  2.71765846e+00  7.69033213e-02
  4.22907992e+00  2.71765846e+00  7.69033213e-02  4.22907992e+00  2.71765846e+00
  7.69033213e-02  4.72663538e+00  3.74790293e+00 -2.34415143e+00  4.72663538e+00
  3.74790293e+00 -2.34415143e+00  4.72663538e+00  3.74790293e+00 -2.34415143e+00
  4.72663538e+00  3.74790293e+00 -2.34415143e+00  4.72663538e+00  3.74790293e+00
 -2.34415143e+00  4.72663538e+00  3.74790293e+00 -2.34415143e+00  4.72663538e+00
  3.74790293e+00 -2.34415143e+00  4.72663538e+00  3.74790293e+00 -2.34415143e+00
 -1.71798854e+00 -1.61983714e+00 -4.54257569e+00 -1.71798854e+00 -1.61983714e+00
 -4.54257569e+00 -1.71798854e+00 -1.61983714e+00 -4.54257569e+00 -1.71798854e+00
 -1.61983714e+00 -4.54257569e+00 -1.71798854e+00 -1.61983714e+00 -4.54257569e+00
 -1.71798854e+00 -1.61983714e+00 -4.54257569e+00 -1.71798854e+00 -1.61983714e+00
 -4.54257569e+00 -1.71798854e+00 -1.61983714e+00 -4.54257569e+00 -1.95549965e-01
  8.51133735e-02 -5.80630265e+00 -1.95549965e-01  8.51133735e-02 -5.80630265e+00
 -1.95549965e-01  8.51133735e-02 -5.80630265e+00 -1.95549965e-01  8.51133735e-02
 -5.80630265e+00 -1.95549965e-01  8.51133735e-02 -5.80630265e+00 -1.95549965e-01
  8.51133735e-02 -5.80630265e+00 -1.95549965e-01  8.51133735e-02 -5.80630265e+00
 -1.95549965e-01  8.51133735e-02 -5.80630265e+00  1.44420662e+00  1.19070414e+00
 -4.09720753e+00  1.44420662e+00  1.19070414e+00 -4.09720753e+00  1.44420662e+00
  1.19070414e+00 -4.09720753e+00  1.44420662e+00  1.19070414e+00 -4.09720753e+00
  1.44420662e+00  1.19070414e+00 -4.09720753e+00  1.44420662e+00  1.19070414e+00
 -4.09720753e+00  1.44420662e+00  1.19070414e+00 -4.09720753e+00  1.44420662e+00
  1.19070414e+00 -4.09720753e+00  3.34845923e+00  2.99787740e+00 -4.44280271e+00
  3.34845923e+00  2.99787740e+00 -4.44280271e+00  3.34845923e+00  2.99787740e+00
 -4.44280271e+00  3.34845923e+00  2.99787740e+00 -4.44280271e+00  3.34845923e+00
  2.99787740e+00 -4.44280271e+00  3.34845923e+00  2.99787740e+00 -4.44280271e+00
  3.34845923e+00  2.99787740e+00 -4.44280271e+00  3.34845923e+00  2.99787740e+00
 -4.44280271e+00  6.22223237e+00  5.14241974e+00 -2.51009342e+00  6.22223237e+00
  5.14241974e+00 -2.51009342e+00  3.74944787e+00  3.79753157e+00 -6.29276371e+00
  3.74944787e+00  3.79753157e+00 -6.29276371e+00  1.94389190e+00  1.34564983e-01
  2.27758117e+00  1.94389190e+00  1.34564983e-01  2.27758117e+00 -2.45280591e-01
  4.30311863e-01 -7.67972382e+00 -2.45280591e-01  4.30311863e-01 -7.67972382e+00
 -3.12389532e+00 -2.70525594e+00 -5.55730037e+00 -3.12389532e+00 -2.70525594e+00
 -5.55730037e+00 -2.35386602e+00 -3.23512484e+00  2.74539111e-04 -2.35386602e+00
 -3.23512484e+00  2.74539111e-04 -2.35386602e+00 -3.23512484e+00  2.74539111e-04
 -2.35386602e+00 -3.23512484e+00  2.74539111e-04 -2.35386602e+00 -3.23512484e+00
  2.74539111e-04 -2.35386602e+00 -3.23512484e+00  2.74539111e-04 -2.35386602e+00
 -3.23512484e+00  2.74539111e-04 -2.35386602e+00 -3.23512484e+00  2.74539111e-04
 -4.23367785e+00 -1.72808428e+00  1.63829633e+00 -4.23367785e+00 -1.72808428e+00
  1.63829633e+00 -4.23367785e+00 -1.72808428e+00  1.63829633e+00 -4.23367785e+00
 -1.72808428e+00  1.63829633e+00 -4.23367785e+00 -1.72808428e+00  1.63829633e+00
 -4.23367785e+00 -1.72808428e+00  1.63829633e+00 -4.23367785e+00 -1.72808428e+00
  1.63829633e+00 -4.23367785e+00 -1.72808428e+00  1.63829633e+00 -8.86699652e-01
 -4.08260453e+00  1.19789767e+00 -8.86699652e-01 -4.08260453e+00  1.19789767e+00
 -3.38415633e+00 -4.81068631e+00 -8.68168795e-01 -3.38415633e+00 -4.81068631e+00
 -8.68168795e-01 -5.60153628e+00 -3.29081313e+00  3.46999869e+00 -5.60153628e+00
 -3.29081313e+00  3.46999869e+00 -5.60153628e+00 -3.29081313e+00  3.46999869e+00
 -5.60153628e+00 -3.29081313e+00  3.46999869e+00 -5.60153628e+00 -3.29081313e+00
  3.46999869e+00 -5.60153628e+00 -3.29081313e+00  3.46999869e+00 -5.60153628e+00
 -3.29081313e+00  3.46999869e+00 -5.60153628e+00 -3.29081313e+00  3.46999869e+00
 -5.63646803e+00 -8.73662744e-01  3.76244283e-01 -5.63646803e+00 -8.73662744e-01
  3.76244283e-01 -3.24048207e+00 -1.42982909e-01  2.58574682e+00 -3.24048207e+00
 -1.42982909e-01  2.58574682e+00 -3.99535316e+00 -4.19416738e+00  5.51921169e+00
 -3.99535316e+00 -4.19416738e+00  5.51921169e+00 -3.99535316e+00 -4.19416738e+00
  5.51921169e+00 -3.99535316e+00 -4.19416738e+00  5.51921169e+00 -3.99535316e+00
 -4.19416738e+00  5.51921169e+00 -3.99535316e+00 -4.19416738e+00  5.51921169e+00
 -3.99535316e+00 -4.19416738e+00  5.51921169e+00 -3.99535316e+00 -4.19416738e+00
  5.51921169e+00 -7.79566555e+00 -1.95838211e+00  4.47431132e+00 -7.79566555e+00
 -1.95838211e+00  4.47431132e+00 -7.79566555e+00 -1.95838211e+00  4.47431132e+00
 -7.79566555e+00 -1.95838211e+00  4.47431132e+00 -7.79566555e+00 -1.95838211e+00
  4.47431132e+00 -7.79566555e+00 -1.95838211e+00  4.47431132e+00 -7.79566555e+00
 -1.95838211e+00  4.47431132e+00 -7.79566555e+00 -1.95838211e+00  4.47431132e+00
 -9.04903036e+00 -1.40033434e+00  2.92454183e+00 -9.04903036e+00 -1.40033434e+00
  2.92454183e+00 -7.28157169e+00 -2.34542580e-01  5.55163877e+00 -7.28157169e+00
 -2.34542580e-01  5.55163877e+00 -8.85302359e+00 -3.21182687e+00  5.73865296e+00
 -8.85302359e+00 -3.21182687e+00  5.73865296e+00 -2.44374551e+00 -5.34159454e+00
  4.78021748e+00 -2.44374551e+00 -5.34159454e+00  4.78021748e+00 -5.10792074e+00
 -5.38835175e+00  6.79255937e+00 -5.10792074e+00 -5.38835175e+00  6.79255937e+00
 -3.17413875e+00 -2.62817723e+00  6.64883926e+00 -3.17413875e+00 -2.62817723e+00
  6.64883926e+00  5.75081188e+00  3.64024331e+00  1.97109735e+00  5.75081188e+00
  3.64024331e+00  1.97109735e+00  5.75081188e+00  3.64024331e+00  1.97109735e+00
  5.75081188e+00  3.64024331e+00  1.97109735e+00  5.75081188e+00  3.64024331e+00
  1.97109735e+00  5.75081188e+00  3.64024331e+00  1.97109735e+00  5.75081188e+00
  3.64024331e+00  1.97109735e+00  5.75081188e+00  3.64024331e+00  1.97109735e+00
  5.38008133e+00  2.71576719e+00  4.45805303e+00  5.38008133e+00  2.71576719e+00
  4.45805303e+00  5.38008133e+00  2.71576719e+00  4.45805303e+00  5.38008133e+00
  2.71576719e+00  4.45805303e+00  5.38008133e+00  2.71576719e+00  4.45805303e+00
  5.38008133e+00  2.71576719e+00  4.45805303e+00  5.38008133e+00  2.71576719e+00