Generated by Psi4
     FORCE                           RHF                       TESTBAS
Number of atoms                            I               31
Charge                                     I                0
Multiplicity                               I                1
Number of electrons                        I              140
Number of alpha electrons                  I               70
Number of beta electrons                   I               70
Number of basis functions                  I              333
Number of independent functions            I              333
Atomic numbers                             I   N=          31
           6           6           6           1           1           7
           6           6           6           6           6           1
           1           8           6           1           1           1
           6           1           1           1           1           1
           1           8           6           1           1           1
          35
Nuclear charges                            R   N=          31
  6.00000000e+00  6.00000000e+00  6.00000000e+00  1.00000000e+00  1.00000000e+00
  7.00000000e+00  6.00000000e+00  6.00000000e+00  6.00000000e+00  6.00000000e+00
  6.00000000e+00  1.00000000e+00  1.00000000e+00  8.00000000e+00  6.00000000e+00
  1.00000000e+00  1.00000000e+00  1.00000000e+00  6.00000000e+00  1.00000000e+00
  1.00000000e+00  1.00000000e+00  1.00000000e+00  1.00000000e+00  1.00000000e+00
  8.00000000e+00  6.00000000e+00  1.00000000e+00  1.00000000e+00  1.00000000e+00
  3.50000000e+01
Current cartesian coordinates              R   N=          93
 -1.25184994e+00 -1.62769580e+00  2.20396435e+00 -2.75962044e+00 -2.79503750e+00
  4.33182350e+00 -5.32499918e+00 -1.47690652e+00  4.91999036e+00 -1.61341333e+00
 -2.79749384e+00  6.06450567e+00 -3.16222293e+00 -4.77519496e+00  3.86706669e+00
 -6.89220520e+00 -2.90627381e+00  6.71343968e+00  8.58791632e-01 -1.13219915e-01
  2.69409849e+00  2.28775909e+00  1.00915410e+00  7.63981958e-01  1.54405408e+00
  5.71725967e-01 -1.73778799e+00 -5.43364889e-01 -9.38474451e-01 -2.29141410e+00
 -1.93994044e+00 -2.03682455e+00 -3.34100117e-01  1.39497196e+00  1.83800760e-01
  4.65053181e+00 -1.04687814e+00 -1.23686848e+00 -4.25161377e+00  4.35740953e+00
  2.49525051e+00  1.15603318e+00  5.15363174e+00  2.95706019e+00  3.67773177e+00
  5.67590092e+00  1.19515075e+00  4.64148166e+00  3.68549403e+00  3.93721075e+00
  4.76830289e+00  6.81403643e+00  4.16969956e+00  3.51904864e+00 -4.97265071e+00
  1.20822197e+00  5.93477875e+00 -3.93996691e+00  1.18464612e+00  7.73863779e+00
 -6.81347908e+00  2.09123267e+00  6.26825387e+00 -3.90253114e+00  2.38220344e+00
  4.60871763e+00 -6.40179830e+00 -1.37970812e+00  3.15263783e+00 -5.99656439e+00
 -3.07824369e+00  8.41258173e+00 -7.21873641e+00 -4.69139645e+00  6.06895380e+00
 -4.00446589e+00 -3.55987675e+00 -7.29743871e-01 -4.75776463e+00 -4.07946347e+00
 -3.25402163e+00 -5.29756436e+00 -2.34323724e+00 -4.25378822e+00 -6.39825579e+00
 -5.32074615e+00 -3.10489865e+00 -3.25444378e+00 -5.04695879e+00 -4.30728890e+00
  3.40994129e+00  2.04300156e+00 -4.45971511e+00
Integer atomic weights                     I   N=          31
          12          12          12           1           1          14
          12          12          12          12          12           1
           1          15          12           1           1           1
          12           1           1           1           1           1
           1          15          12           1           1           1
          78
Real atomic weights                        R   N=          31
  1.20000000e+01  1.20000000e+01  1.20000000e+01  1.00782503e+00  1.00782503e+00
  1.40030740e+01  1.20000000e+01  1.20000000e+01  1.20000000e+01  1.20000000e+01
  1.20000000e+01  1.00782503e+00  1.00782503e+00  1.59949146e+01  1.20000000e+01
  1.00782503e+00  1.00782503e+00  1.00782503e+00  1.20000000e+01  1.00782503e+00
  1.00782503e+00  1.00782503e+00  1.00782503e+00  1.00782503e+00  1.00782503e+00
  1.59949146e+01  1.20000000e+01  1.00782503e+00  1.00782503e+00  1.00782503e+00
  7.89183376e+01
Number of primitive shells                 I              345
Number of contracted shells                I              156
Pure/Cartesian d shells                    I                1
Pure/Cartesian f shells                    I                1
Highest angular momentum                   I                2
Largest degree of contraction              I                6
Shell types                                I   N=         156
           0           0           1           0           1           2
           0           1           0           0           1           0
           1           2           0           1           0           0
           1           0           1           2           0           1
           0           0           0           0           0           0
           1           0           1           2           0           1
           0           0           1           0           1           2
           0           1           0           0           1           0
           1           2           0           1           0           0
           1           0           1           2           0           1
           0           0           1           0           1           2
           0           1           0           0           1           0
           1           2           0           1           0           0
           0           0           0           0           1           0
           1           2           0           1           0           0
           1           0           1           2           0           1
           0           0           0           0           0           0
           0           0           1           0           1           2
           0           1           0           0           0           0
           0           0           0           0           0           0
           0           0           0           0           1           0
           1           2           0           1           0           0
           1           0           1           2           0           1
           0           0           0           0           0           0
           0           0           1           0           1           0
           1           0           1           2           2           2
Number of primitives per shell             I   N=         156
           6           3           3           1           1           1
           1           1           6           3           3           1
           1           1           1           1           6           3
           3           1           1           1           1           1
           3           1           3           1           6           3
           3           1           1           1           1           1
           6           3           3           1           1           1
           1           1           6           3           3           1
           1           1           1           1           6           3
           3           1           1           1           1           1
           6           3           3           1           1           1
           1           1           6           3           3           1
           1           1           1           1           3           1
           3           1           6           3           3           1
           1           1           1           1           6           3
           3           1           1           1           1           1
           3           1           3           1           3           1
           6           3           3           1           1           1
           1           1           3           1           3           1
           3           1           3           1           3           1
           3           1           6           3           3           1
           1           1           1           1           6           3
           3           1           1           1           1           1
           3           1           3           1           3           1
           6           6           6           6           6           3
           3           1           1           3           1           1
Shell to atom map                          I   N=         156
           1           1           1           1           1           1
           1           1           2           2           2           2
           2           2           2           2           3           3
           3           3           3           3           3           3
           4           4           5           5           6           6
           6           6           6           6           6           6
           7           7           7           7           7           7
           7           7           8           8           8           8
           8           8           8           8           9           9
           9           9           9           9           9           9
          10          10          10          10          10          10
          10          10          11          11          11          11
          11          11          11          11          12          12
          13          13          14          14          14          14
          14          14          14          14          15          15
          15          15          15          15          15          15
          16          16          17          17          18          18
          19          19          19          19          19          19
          19          19          20          20          21          21
          22          22          23          23          24          24
          25          25          26          26          26          26
          26          26          26          26          27          27
          27          27          27          27          27          27
          28          28          29          29          30          30
          31          31          31          31          31          31
          31          31          31          31          31          31
Primitive exponents                        R   N=         345
  3.04752490e+03  4.57369510e+02  1.03948690e+02  2.92101550e+01  9.28666300e+00
  3.16392700e+00  7.86827240e+00  1.88128850e+00  5.44249300e-01  7.86827240e+00
  1.88128850e+00  5.44249300e-01  1.68714400e-01  1.68714400e-01  8.00000000e-01
  4.38000000e-02  4.38000000e-02  3.04752490e+03  4.57369510e+02  1.03948690e+02
  2.92101550e+01  9.28666300e+00  3.16392700e+00  7.86827240e+00  1.88128850e+00
  5.44249300e-01  7.86827240e+00  1.88128850e+00  5.44249300e-01  1.68714400e-01
  1.68714400e-01  8.00000000e-01  4.38000000e-02  4.38000000e-02  3.04752490e+03
  4.57369510e+02  1.03948690e+02  2.92101550e+01  9.28666300e+00  3.16392700e+00
  7.86827240e+00  1.88128850e+00  5.44249300e-01  7.86827240e+00  1.88128850e+00
  5.44249300e-01  1.68714400e-01  1.68714400e-01  8.00000000e-01  4.38000000e-02
  4.38000000e-02  1.87311370e+01  2.82539370e+00  6.40121700e-01  1.61277800e-01
  1.87311370e+01  2.82539370e+00  6.40121700e-01  1.61277800e-01  4.17351100e+03
  6.27457900e+02  1.42902100e+02  4.02343300e+01  1.28202100e+01  4.39043700e+00
  1.16263580e+01  2.71628000e+00  7.72218000e-01  1.16263580e+01  2.71628000e+00
  7.72218000e-01  2.12031300e-01  2.12031300e-01  8.00000000e-01  6.39000000e-02
  6.39000000e-02  3.04752490e+03  4.57369510e+02  1.03948690e+02  2.92101550e+01
  9.28666300e+00  3.16392700e+00  7.86827240e+00  1.88128850e+00  5.44249300e-01
  7.86827240e+00  1.88128850e+00  5.44249300e-01  1.68714400e-01  1.68714400e-01
  8.00000000e-01  4.38000000e-02  4.38000000e-02  3.04752490e+03  4.57369510e+02
  1.03948690e+02  2.92101550e+01  9.28666300e+00  3.16392700e+00  7.86827240e+00
  1.88128850e+00  5.44249300e-01  7.86827240e+00  1.88128850e+00  5.44249300e-01
  1.68714400e-01  1.68714400e-01  8.00000000e-01  4.38000000e-02  4.38000000e-02
  3.04752490e+03  4.57369510e+02  1.03948690e+02  2.92101550e+01  9.28666300e+00
  3.16392700e+00  7.86827240e+00  1.88128850e+00  5.44249300e-01  7.86827240e+00
  1.88128850e+00  5.44249300e-01  1.68714400e-01  1.68714400e-01  8.00000000e-01
  4.38000000e-02  4.38000000e-02  3.04752490e+03  4.57369510e+02  1.03948690e+02
  2.92101550e+01  9.28666300e+00  3.16392700e+00  7.86827240e+00  1.88128850e+00
  5.44249300e-01  7.86827240e+00  1.88128850e+00  5.44249300e-01  1.68714400e-01
  1.68714400e-01  8.00000000e-01  4.38000000e-02  4.38000000e-02  3.04752490e+03
  4.57369510e+02  1.03948690e+02  2.92101550e+01  9.28666300e+00  3.16392700e+00
  7.86827240e+00  1.88128850e+00  5.44249300e-01  7.86827240e+00  1.88128850e+00
  5.44249300e-01  1.68714400e-01  1.68714400e-01  8.00000000e-01  4.38000000e-02
  4.38000000e-02  1.87311370e+01  2.82539370e+00  6.40121700e-01  1.61277800e-01
  1.87311370e+01  2.82539370e+00  6.40121700e-01  1.61277800e-01  5.48467170e+03
  8.25234950e+02  1.88046960e+02  5.29645000e+01  1.68975700e+01  5.79963530e+00
  1.55396160e+01  3.59993360e+00  1.01376180e+00  1.55396160e+01  3.59993360e+00
  1.01376180e+00  2.70005800e-01  2.70005800e-01  8.00000000e-01  8.45000000e-02
  8.45000000e-02  3.04752490e+03  4.57369510e+02  1.03948690e+02  2.92101550e+01
  9.28666300e+00  3.16392700e+00  7.86827240e+00  1.88128850e+00  5.44249300e-01
  7.86827240e+00  1.88128850e+00  5.44249300e-01  1.68714400e-01  1.68714400e-01
  8.00000000e-01  4.38000000e-02  4.38000000e-02  1.87311370e+01  2.82539370e+00
  6.40121700e-01  1.61277800e-01  1.87311370e+01  2.82539370e+00  6.40121700e-01
  1.61277800e-01  1.87311370e+01  2.82539370e+00  6.40121700e-01  1.61277800e-01
  3.04752490e+03  4.57369510e+02  1.03948690e+02  2.92101550e+01  9.28666300e+00
  3.16392700e+00  7.86827240e+00  1.88128850e+00  5.44249300e-01  7.86827240e+00
  1.88128850e+00  5.44249300e-01  1.68714400e-01  1.68714400e-01  8.00000000e-01
  4.38000000e-02  4.38000000e-02  1.87311370e+01  2.82539370e+00  6.40121700e-01
  1.61277800e-01  1.87311370e+01  2.82539370e+00  6.40121700e-01  1.61277800e-01
  1.87311370e+01  2.82539370e+00  6.40121700e-01  1.61277800e-01  1.87311370e+01
  2.82539370e+00  6.40121700e-01  1.61277800e-01  1.87311370e+01  2.82539370e+00
  6.40121700e-01  1.61277800e-01  1.87311370e+01  2.82539370e+00  6.40121700e-01
  1.61277800e-01  5.48467170e+03  8.25234950e+02  1.88046960e+02  5.29645000e+01
  1.68975700e+01  5.79963530e+00  1.55396160e+01  3.59993360e+00  1.01376180e+00
  1.55396160e+01  3.59993360e+00  1.01376180e+00  2.70005800e-01  2.70005800e-01
  8.00000000e-01  8.45000000e-02  8.45000000e-02  3.04752490e+03  4.57369510e+02
  1.03948690e+02  2.92101550e+01  9.28666300e+00  3.16392700e+00  7.86827240e+00
  1.88128850e+00  5.44249300e-01  7.86827240e+00  1.88128850e+00  5.44249300e-01
  1.68714400e-01  1.68714400e-01  8.00000000e-01  4.38000000e-02  4.38000000e-02
  1.87311370e+01  2.82539370e+00  6.40121700e-01  1.61277800e-01  1.87311370e+01
  2.82539370e+00  6.40121700e-01  1.61277800e-01  1.87311370e+01  2.82539370e+00
  6.40121700e-01  1.61277800e-01  1.13718200e+05  1.70744400e+04  3.88957600e+03
  1.09709600e+03  3.52062400e+02  1.20700200e+02  2.47113800e+03  5.89383800e+02
  1.91873800e+02  7.29533900e+01  3.00583900e+01  1.25292700e+01  2.47113800e+03
  5.89383800e+02  1.91873800e+02  7.29533900e+01  3.00583900e+01  1.25292700e+01
  1.09641100e+02  3.85894800e+01  1.63781800e+01  7.22183600e+00  3.26369700e+00
  1.46549900e+00  1.09641100e+02  3.85894800e+01  1.63781800e+01  7.22183600e+00
  3.26369700e+00  1.46549900e+00  2.10365100e+00  7.54705000e-01  3.00514000e-01
  2.10365100e+00  7.54705000e-01  3.00514000e-01  1.09071000e-01  1.09071000e-01
  6.22551400e+01  1.73128400e+01  5.60791500e+00  1.74648600e+00  4.36600000e-01
Contraction coefficients                   R   N=         345
  1.83470016e-03  1.40373012e-02  6.88426061e-02  2.32184421e-01  4.67941342e-01
  3.62312032e-01 -1.19332409e-01 -1.60854212e-01  1.14345648e+00  6.89990956e-02
  3.16423980e-01  7.44308252e-01  1.00000000e+00  1.00000000e+00  1.00000000e+00
  1.00000000e+00  1.00000000e+00  1.83470016e-03  1.40373012e-02  6.88426061e-02
  2.32184421e-01  4.67941342e-01  3.62312032e-01 -1.19332409e-01 -1.60854212e-01
  1.14345648e+00  6.89990956e-02  3.16423980e-01  7.44308252e-01  1.00000000e+00
  1.00000000e+00  1.00000000e+00  1.00000000e+00  1.00000000e+00  1.83470016e-03
  1.40373012e-02  6.88426061e-02  2.32184421e-01  4.67941342e-01  3.62312032e-01
 -1.19332409e-01 -1.60854212e-01  1.14345648e+00  6.89990956e-02  3.16423980e-01
  7.44308252e-01  1.00000000e+00  1.00000000e+00  1.00000000e+00  1.00000000e+00
  1.00000000e+00  3.34945995e-02  2.34726947e-01  8.13757318e-01  1.00000000e+00
  3.34945995e-02  2.34726947e-01  8.13757318e-01  1.00000000e+00  1.83479944e-03
  1.39949958e-02  6.85869792e-02  2.32240930e-01  4.69069858e-01  3.60454891e-01
 -1.14961023e-01 -1.69118034e-01  1.14585223e+00  6.75800232e-02  3.23907111e-01
  7.40895255e-01  1.00000000e+00  1.00000000e+00  1.00000000e+00  1.00000000e+00
  1.00000000e+00  1.83470016e-03  1.40373012e-02  6.88426061e-02  2.32184421e-01
  4.67941342e-01  3.62312032e-01 -1.19332409e-01 -1.60854212e-01  1.14345648e+00
  6.89990956e-02  3.16423980e-01  7.44308252e-01  1.00000000e+00  1.00000000e+00
  1.00000000e+00  1.00000000e+00  1.00000000e+00  1.83470016e-03  1.40373012e-02
  6.88426061e-02  2.32184421e-01  4.67941342e-01  3.62312032e-01 -1.19332409e-01
 -1.60854212e-01  1.14345648e+00  6.89990956e-02  3.16423980e-01  7.44308252e-01
  1.00000000e+00  1.00000000e+00  1.00000000e+00  1.00000000e+00  1.00000000e+00
  1.83470016e-03  1.40373012e-02  6.88426061e-02  2.32184421e-01  4.67941342e-01
  3.62312032e-01 -1.19332409e-01 -1.60854212e-01  1.14345648e+00  6.89990956e-02
  3.16423980e-01  7.44308252e-01  1.00000000e+00  1.00000000e+00  1.00000000e+00
  1.00000000e+00  1.00000000e+00  1.83470016e-03  1.40373012e-02  6.88426061e-02
  2.32184421e-01  4.67941342e-01  3.62312032e-01 -1.19332409e-01 -1.60854212e-01
  1.14345648e+00  6.89990956e-02  3.16423980e-01  7.44308252e-01  1.00000000e+00
  1.00000000e+00  1.00000000e+00  1.00000000e+00  1.00000000e+00  1.83470016e-03
  1.40373012e-02  6.88426061e-02  2.32184421e-01  4.67941342e-01  3.62312032e-01
 -1.19332409e-01 -1.60854212e-01  1.14345648e+00  6.89990956e-02  3.16423980e-01
  7.44308252e-01  1.00000000e+00  1.00000000e+00  1.00000000e+00  1.00000000e+00
  1.00000000e+00  3.34945995e-02  2.34726947e-01  8.13757318e-01  1.00000000e+00
  3.34945995e-02  2.34726947e-01  8.13757318e-01  1.00000000e+00  1.83109981e-03
  1.39500985e-02  6.84450927e-02  2.32714275e-01  4.70192950e-01  3.58520862e-01
 -1.10777504e-01 -1.48026305e-01  1.13076704e+00  7.08742995e-02  3.39752798e-01
  7.27158595e-01  1.00000000e+00  1.00000000e+00  1.00000000e+00  1.00000000e+00
  1.00000000e+00  1.83470016e-03  1.40373012e-02  6.88426061e-02  2.32184421e-01
  4.67941342e-01  3.62312032e-01 -1.19332409e-01 -1.60854212e-01  1.14345648e+00
  6.89990956e-02  3.16423980e-01  7.44308252e-01  1.00000000e+00  1.00000000e+00
  1.00000000e+00  1.00000000e+00  1.00000000e+00  3.34945995e-02  2.34726947e-01
  8.13757318e-01  1.00000000e+00  3.34945995e-02  2.34726947e-01  8.13757318e-01
  1.00000000e+00  3.34945995e-02  2.34726947e-01  8.13757318e-01  1.00000000e+00
  1.83470016e-03  1.40373012e-02  6.88426061e-02  2.32184421e-01  4.67941342e-01
  3.62312032e-01 -1.19332409e-01 -1.60854212e-01  1.14345648e+00  6.89990956e-02
  3.16423980e-01  7.44308252e-01  1.00000000e+00  1.00000000e+00  1.00000000e+00
  1.00000000e+00  1.00000000e+00  3.34945995e-02  2.34726947e-01  8.13757318e-01
  1.00000000e+00  3.34945995e-02  2.34726947e-01  8.13757318e-01  1.00000000e+00
  3.34945995e-02  2.34726947e-01  8.13757318e-01  1.00000000e+00  3.34945995e-02
  2.34726947e-01  8.13757318e-01  1.00000000e+00  3.34945995e-02  2.34726947e-01
  8.13757318e-01  1.00000000e+00  3.34945995e-02  2.34726947e-01  8.13757318e-01
  1.00000000e+00  1.83109981e-03  1.39500985e-02  6.84450927e-02  2.32714275e-01
  4.70192950e-01  3.58520862e-01 -1.10777504e-01 -1.48026305e-01  1.13076704e+00
  7.08742995e-02  3.39752798e-01  7.27158595e-01  1.00000000e+00  1.00000000e+00
  1.00000000e+00  1.00000000e+00  1.00000000e+00  1.83470016e-03  1.40373012e-02
  6.88426061e-02  2.32184421e-01  4.67941342e-01  3.62312032e-01 -1.19332409e-01
 -1.60854212e-01  1.14345648e+00  6.89990956e-02  3.16423980e-01  7.44308252e-01
  1.00000000e+00  1.00000000e+00  1.00000000e+00  1.00000000e+00  1.00000000e+00
  3.34945995e-02  2.34726947e-01  8.13757318e-01  1.00000000e+00  3.34945995e-02
  2.34726947e-01  8.13757318e-01  1.00000000e+00  3.34945995e-02  2.34726947e-01
  8.13757318e-01  1.00000000e+00  1.71769602e-03  1.31674402e-02  6.50455308e-02
  2.26950503e-01  4.76835706e-01  3.58367704e-01  2.24368693e-03  2.99485291e-02
  1.25600896e-01 -9.83278571e-04 -6.01314082e-01 -4.91398286e-01  3.79018184e-03
  2.99597888e-02  1.31822795e-01  3.43270786e-01  4.64234481e-01  2.07938691e-01
 -5.97568320e-03  5.54212219e-02  2.68120009e-01 -1.54360605e-01 -7.20630625e-01
 -3.31643711e-01 -6.90748264e-03 -3.04143184e-02  4.60272476e-02  3.65068881e-01
  4.94923174e-01  2.09039389e-01  3.02902925e-01 -2.15265918e-01 -9.63394181e-01
 -2.82671388e-02  3.50306486e-01  7.18244570e-01  1.00000000e+00  1.00000000e+00
  7.70422846e-02  3.70738374e-01  7.09762750e-01  1.00000000e+00  1.00000000e+00
Coordinates of each shell                  R   N=         468
 -1.25184994e+00 -1.62769580e+00  2.20396435e+00 -1.25184994e+00 -1.62769580e+00
  2.20396435e+00 -1.25184994e+00 -1.62769580e+00  2.20396435e+00 -1.25184994e+00
 -1.62769580e+00  2.20396435e+00 -1.25184994e+00 -1.62769580e+00  2.20396435e+00
 -1.25184994e+00 -1.62769580e+00  2.20396435e+00 -1.25184994e+00 -1.62769580e+00
  2.20396435e+00 -1.25184994e+00 -1.62769580e+00  2.20396435e+00 -2.75962044e+00
 -2.79503750e+00  4.33182350e+00 -2.75962044e+00 -2.79503750e+00  4.33182350e+00
 -2.75962044e+00 -2.79503750e+00  4.33182350e+00 -2.75962044e+00 -2.79503750e+00
  4.33182350e+00 -2.75962044e+00 -2.79503750e+00  4.33182350e+00 -2.75962044e+00
 -2.79503750e+00  4.33182350e+00 -2.75962044e+00 -2.79503750e+00  4.33182350e+00
 -2.75962044e+00 -2.79503750e+00  4.33182350e+00 -5.32499918e+00 -1.47690652e+00
  4.91999036e+00 -5.32499918e+00 -1.47690652e+00  4.91999036e+00 -5.32499918e+00
 -1.47690652e+00  4.91999036e+00 -5.32499918e+00 -1.47690652e+00  4.91999036e+00
 -5.32499918e+00 -1.47690652e+00  4.91999036e+00 -5.32499918e+00 -1.47690652e+00
  4.91999036e+00 -5.32499918e+00 -1.47690652e+00  4.91999036e+00 -5.32499918e+00
 -1.47690652e+00  4.91999036e+00 -1.61341333e+00 -2.79749384e+00  6.06450567e+00
 -1.61341333e+00 -2.79749384e+00  6.06450567e+00 -3.16222293e+00 -4.77519496e+00
  3.86706669e+00 -3.16222293e+00 -4.77519496e+00  3.86706669e+00 -6.89220520e+00
 -2.90627381e+00  6.71343968e+00 -6.89220520e+00 -2.90627381e+00  6.71343968e+00
 -6.89220520e+00 -2.90627381e+00  6.71343968e+00 -6.89220520e+00 -2.90627381e+00
  6.71343968e+00 -6.89220520e+00 -2.90627381e+00  6.71343968e+00 -6.89220520e+00
 -2.90627381e+00  6.71343968e+00 -6.89220520e+00 -2.90627381e+00  6.71343968e+00
 -6.89220520e+00 -2.90627381e+00  6.71343968e+00  8.58791632e-01 -1.13219915e-01
  2.69409849e+00  8.58791632e-01 -1.13219915e-01  2.69409849e+00  8.58791632e-01
 -1.13219915e-01  2.69409849e+00  8.58791632e-01 -1.13219915e-01  2.69409849e+00
  8.58791632e-01 -1.13219915e-01  2.69409849e+00  8.58791632e-01 -1.13219915e-01
  2.69409849e+00  8.58791632e-01 -1.13219915e-01  2.69409849e+00  8.58791632e-01
 -1.13219915e-01  2.69409849e+00  2.28775909e+00  1.00915410e+00  7.63981958e-01
  2.28775909e+00  1.00915410e+00  7.63981958e-01  2.28775909e+00  1.00915410e+00
  7.63981958e-01  2.28775909e+00  1.00915410e+00  7.63981958e-01  2.28775909e+00
  1.00915410e+00  7.63981958e-01  2.28775909e+00  1.00915410e+00  7.63981958e-01
  2.28775909e+00  1.00915410e+00  7.63981958e-01  2.28775909e+00  1.00915410e+00
  7.63981958e-01  1.54405408e+00  5.71725967e-01 -1.73778799e+00  1.54405408e+00
  5.71725967e-01 -1.73778799e+00  1.54405408e+00  5.71725967e-01 -1.73778799e+00
  1.54405408e+00  5.71725967e-01 -1.73778799e+00  1.54405408e+00  5.71725967e-01
 -1.73778799e+00  1.54405408e+00  5.71725967e-01 -1.73778799e+00  1.54405408e+00
  5.71725967e-01 -1.73778799e+00  1.54405408e+00  5.71725967e-01 -1.73778799e+00
 -5.43364889e-01 -9.38474451e-01 -2.29141410e+00 -5.43364889e-01 -9.38474451e-01
 -2.29141410e+00 -5.43364889e-01 -9.38474451e-01 -2.29141410e+00 -5.43364889e-01
 -9.38474451e-01 -2.29141410e+00 -5.43364889e-01 -9.38474451e-01 -2.29141410e+00
 -5.43364889e-01 -9.38474451e-01 -2.29141410e+00 -5.43364889e-01 -9.38474451e-01
 -2.29141410e+00 -5.43364889e-01 -9.38474451e-01 -2.29141410e+00 -1.93994044e+00
 -2.03682455e+00 -3.34100117e-01 -1.93994044e+00 -2.03682455e+00 -3.34100117e-01
 -1.93994044e+00 -2.03682455e+00 -3.34100117e-01 -1.93994044e+00 -2.03682455e+00
 -3.34100117e-01 -1.93994044e+00 -2.03682455e+00 -3.34100117e-01 -1.93994044e+00
 -2.03682455e+00 -3.34100117e-01 -1.93994044e+00 -2.03682455e+00 -3.34100117e-01
 -1.93994044e+00 -2.03682455e+00 -3.34100117e-01  1.39497196e+00  1.83800760e-01
  4.65053181e+00  1.39497196e+00  1.83800760e-01  4.65053181e+00 -1.04687814e+00
 -1.23686848e+00 -4.25161377e+00 -1.04687814e+00 -1.23686848e+00 -4.25161377e+00
  4.35740953e+00  2.49525051e+00  1.15603318e+00  4.35740953e+00  2.49525051e+00
  1.15603318e+00  4.35740953e+00  2.49525051e+00  1.15603318e+00  4.35740953e+00
  2.49525051e+00  1.15603318e+00  4.35740953e+00  2.49525051e+00  1.15603318e+00
  4.35740953e+00  2.49525051e+00  1.15603318e+00  4.35740953e+00  2.49525051e+00
  1.15603318e+00  4.35740953e+00  2.49525051e+00  1.15603318e+00  5.15363174e+00
  2.95706019e+00  3.67773177e+00  5.15363174e+00  2.95706019e+00  3.67773177e+00
  5.15363174e+00  2.95706019e+00  3.67773177e+00  5.15363174e+00  2.95706019e+00
  3.67773177e+00  5.15363174e+00  2.95706019e+00  3.67773177e+00  5.15363174e+00
  2.95706019e+00  3.67773177e+00  5.15363174e+00  2.95706019e+00  3.67773177e+00
  5.15363174e+00  2.95706019e+00  3.67773177e+00  5.67590092e+00  1.19515075e+00
  4.64148166e+00  5.67590092e+00  1.19515075e+00  4.64148166e+00  3.68549403e+00
  3.93721075e+00  4.76830289e+00  3.68549403e+00  3.93721075e+00  4.76830289e+00
  6.81403643e+00  4.16969956e+00  3.51904864e+00  6.81403643e+00  4.16969956e+00
  3.51904864e+00 -4.97265071e+00  1.20822197e+00  5.93477875e+00 -4.97265071e+00
  1.20822197e+00  5.93477875e+00 -4.97265071e+00  1.20822197e+00  5.93477875e+00
 -4.97265071e+00  1.20822197e+00  5.93477875e+00 -4.97265071e+00  1.20822197e+00
  5.93477875e+00 -4.97265071e+00  1.20822197e+00  5.93477875e+00 -4.97265071e+00
  1.20822197e+00  5.93477875e+00 -4.97265071e+00  1.20822197e+00  5.93477875e+00
 -3.93996691e+00  1.18464612e+00  7.73863779e+00 -3.93996691e+00  1.18464612e+00
  7.73863779e+00 -6.81347908e+00  2.09123267e+00  6.26825387e+00 -6.81347908e+00
  2.09123267e+00  6.26825387e+00 -3.90253114e+00  2.38220344e+00  4.60871763e+00
 -3.90253114e+00  2.38220344e+00  4.60871763e+00 -6.40179830e+00 -1.37970812e+00
  3.15263783e+00 -6.40179830e+00 -1.37970812e+00  3.15263783e+00 -5.99656439e+00
 -3.07824369e+00  8.41258173e+00 -5.99656439e+00 -3.07824369e+00  8.41258173e+00
 -7.21873641e+00 -4.69139645e+00  6.06895380e+00 -7.21873641e+00 -4.69139645e+00
  6.06895380e+00 -4.00446589e+00 -3.55987675e+00 -7.29743871e-01 -4.00446589e+00
 -3.55987675e+00 -7.29743871e-01 -4.00446589e+00 -3.55987675e+00 -7.29743871e-01
 -4.00446589e+00 -3.55987675e+00 -7.29743871e-01 -4.00446589e+00 -3.55987675e+00
 -7.29743871e-01 -4.00446589e+00 -3.55987675e+00 -7.29743871e-01 -4.00446589e+00
 -3.55987675e+00 -7.29743871e-01 -4.00446589e+00 -3.55987675e+00 -7.29743871e-01
 -4.75776463e+00 -4.07946347e+00 -3.25402163e+00 -4.75776463e+00 -4.07946347e+00
 -3.25402163e+00 -4.75776463e+00 -4.07946347e+00 -3.25402163e+00 -4.75776463e+00
 -4.07946347e+00 -3.25402163e+00 -4.75776463e+00 -4.07946347e+00 -3.25402163e+00
 -4.75776463e+00 -4.07946347e+00 -3.25402163e+00 -4.75776463e+00 -4.07946347e+00
 -3.25402163e+00 -4.75776463e+00 -4.07946347e+00 -3.25402163e+00 -5.29756436e+00
 -2.34323724e+00 -4.25378822e+00 -5.29756436e+00 -2.34323724e+00 -4.25378822e+00
 -6.39825579e+00 -5.32074615e+00 -3.10489865e+00 -6.39825579e+00 -5.32074615e+00
 -3.10489865e+00 -3.25444378e+00 -5.04695879e+00 -4.30728890e+00 -3.25444378e+00
 -5.04695879e+00 -4.30728890e+00  3.40994129e+00  2.04300156e+00 -4.45971511e+00
  3.40994129e+00  2.04300156e+00 -4.45971511e+00  3.40994129e+00  2.04300156e+00
 -4.45971511e+00  3.40994129e+00  2.04300156e+00 -4.45971511e+00  3.40994129e+00
  2.04300156e+00 -4.45971511e+00  3.40994129e+00  2.04300156e+00 -4.45971511e+00
  3.40994129e+00  2.04300156e+00 -4.45971511e+00  3.40994129e+00  2.04300156e+00
 -4.45971511e+00  3.40994129e+00  2.04300156e+00 -4.45971511e+00  3.40994129e+00
  2.04300156e+00 -4.45971511e+00  3.40994129e+00  2.04300156e+00 -4.45971511e+00
  3.40994129e+00  2.04300156e+00 -4.45971511e+00
Total Energy                               R     -3.207747425652759e+03
Alpha Orbital Energies                     R   N=         333
 -4.82873808e+02 -6.25307195e+01 -5.63523049e+01 -5.63485126e+01 -5.63483625e+01
 -1.91934625e+01 -1.91925628e+01 -1.43211830e+01 -1.02624995e+01 -1.02574476e+01
 -1.02511511e+01 -1.02500116e+01 -1.02473356e+01 -1.02181048e+01 -1.02079819e+01
 -1.02075062e+01 -1.02038047e+01 -1.01921335e+01 -1.01752701e+01 -8.71048260e+00
 -6.54093588e+00 -6.52780285e+00 -6.52731224e+00 -2.60774408e+00 -2.60386784e+00
 -2.60352944e+00 -2.59312567e+00 -2.59311936e+00 -1.07749294e+00 -1.07557618e+00