Generated by Psi4
     FORCE                           RHF                       TESTBAS
Number of atoms                            I               39
Charge                                     I                0
Multiplicity                               I                1
Number of electrons                        I              134
Number of alpha electrons                  I               67
Number of beta electrons                   I               67
Number of basis functions                  I              384
Number of independent functions            I              384
Atomic numbers                             I   N=          39
           7           6           6           6           6           6
           6           6           6           6           6           6
           1           1           1           1           1           1
           1           1           1           1           1           1
           6           6           6           1           1           1
           1           1           8           8           1           6
           1           1           1
Nuclear charges                            R   N=          39
  7.00000000e+00  6.00000000e+00  6.00000000e+00  6.00000000e+00  6.00000000e+00
  6.00000000e+00  6.00000000e+00  6.00000000e+00  6.00000000e+00  6.00000000e+00
  6.00000000e+00  6.00000000e+00  1.00000000e+00  1.00000000e+00  1.00000000e+00
  1.00000000e+00  1.00000000e+00  1.00000000e+00  1.00000000e+00  1.00000000e+00
  1.00000000e+00  1.00000000e+00  1.00000000e+00  1.00000000e+00  6.00000000e+00
  6.00000000e+00  6.00000000e+00  1.00000000e+00  1.00000000e+00  1.00000000e+00
  1.00000000e+00  1.00000000e+00  8.00000000e+00  8.00000000e+00  1.00000000e+00
  6.00000000e+00  1.00000000e+00  1.00000000e+00  1.00000000e+00
Current cartesian coordinates              R   N=         117
 -5.52792042e+00  6.11256776e-01  3.50654704e+00 -2.94552140e+00  1.02863757e+00
  4.47109417e+00 -1.02970322e+00 -8.88246771e-01  3.42202804e+00 -7.41987809e-01
 -6.13731435e-01  4.98837100e-01  2.66990006e+00  2.81660966e+00  1.33565155e+00
  1.32141567e+00  1.26208151e+00 -3.38866196e-01  4.47491381e+00  4.51511917e+00
  4.22354941e-01  4.98417267e+00  4.69908478e+00 -2.15697216e+00 -5.56607616e+00
 -6.02288763e-01  1.00663685e+00 -3.33256252e+00  2.71494561e-01 -6.02738394e-01
  1.83534878e+00  1.45836487e+00 -2.93350477e+00  3.64661389e+00  3.15336346e+00
 -3.83373870e+00 -5.53192270e+00 -2.68947880e+00  1.16281258e+00 -7.34938814e+00
 -1.12591563e-01  6.72389379e-02  6.39512102e+00  6.02338763e+00 -2.85490811e+00
  5.49714752e+00  5.71398747e+00  1.74082757e+00 -2.98780675e+00  9.16492673e-01
  6.53889153e+00 -2.33911367e+00  2.95560018e+00  3.99344992e+00 -1.73118148e+00
 -2.79126724e+00  3.85776846e+00  7.92745211e-01 -7.23185874e-01  4.38744446e+00
  2.32706616e+00  2.73943892e+00  3.35358164e+00 -3.54256277e+00 -4.52323587e-01
 -2.52569261e+00 -3.35591116e+00  2.33940324e+00 -7.05274413e-01  8.36203493e-01
  2.95831431e-01 -4.29894316e+00 -2.41815326e-03 -3.24472149e+00 -5.87110592e-01
  2.35627531e+00 -4.50829199e+00  4.94160864e-01  3.29907521e+00 -6.74441058e+00
 -1.07698237e+00  1.89619779e+00 -5.13416128e+00  2.42284570e+00  3.83502703e+00
 -3.07244225e+00  7.18950193e-01  1.84015296e+00 -8.19787034e+00 -1.26033108e+00
  4.96509973e+00 -7.59377383e+00 -1.87188437e-01  3.82094518e+00 -6.14409405e+00
 -2.98811786e+00 -1.25399752e+00 -4.27167878e+00 -2.22563501e+00  4.03079759e+00
  3.20961856e+00 -6.39703925e+00  5.31960629e+00  4.44579293e+00 -6.80822188e+00
 -7.18743801e+00 -6.80876474e-01  5.27684382e+00 -9.09758468e+00 -7.73117837e-01
  4.47943147e+00 -7.29496647e+00  3.74708069e-01  7.05436041e+00 -6.58956707e+00
 -2.64484940e+00  5.70856006e+00
Integer atomic weights                     I   N=          39
          14          12          12          12          12          12
          12          12          12          12          12          12
           1           1           1           1           1           1
           1           1           1           1           1           1
          12          12          12           1           1           1
           1           1          15          15           1          12
           1           1           1
Real atomic weights                        R   N=          39
  1.40030740e+01  1.20000000e+01  1.20000000e+01  1.20000000e+01  1.20000000e+01
  1.20000000e+01  1.20000000e+01  1.20000000e+01  1.20000000e+01  1.20000000e+01
  1.20000000e+01  1.20000000e+01  1.00782503e+00  1.00782503e+00  1.00782503e+00
  1.00782503e+00  1.00782503e+00  1.00782503e+00  1.00782503e+00  1.00782503e+00
  1.00782503e+00  1.00782503e+00  1.00782503e+00  1.00782503e+00  1.20000000e+01
  1.20000000e+01  1.20000000e+01  1.00782503e+00  1.00782503e+00  1.00782503e+00
  1.00782503e+00  1.00782503e+00  1.59949146e+01  1.59949146e+01  1.00782503e+00
  1.20000000e+01  1.00782503e+00  1.00782503e+00  1.00782503e+00
Number of primitive shells                 I              390
Number of contracted shells                I              186
Pure/Cartesian d shells                    I                1
Pure/Cartesian f shells                    I                1
Highest angular momentum                   I                2
Largest degree of contraction              I                6
Shell types                                I   N=         186
           0           0           1           0           1           2
           0           1           0           0           1           0
           1           2           0           1           0           0
           1           0           1           2           0           1
           0           0           1           0           1           2
           0           1           0           0           1           0
           1           2           0           1           0           0
           1           0           1           2           0           1
           0           0           1           0           1           2
           0           1           0           0           1           0
           1           2           0           1           0           0
           1           0           1           2           0           1
           0           0           1           0           1           2
           0           1           0           0           1           0
           1           2           0           1           0           0
           1           0           1           2           0           1
           0           0           0           0           0           0
           0           0           0           0           0           0
           0           0           0           0           0           0
           0           0           0           0           0           0
           0           0           1           0           1           2
           0           1           0           0           1           0
           1           2           0           1           0           0
           1           0           1           2           0           1
           0           0           0           0           0           0
           0           0           0           0           0           0
           1           0           1           2           0           1
           0           0           1           0           1           2
           0           1           0           0           0           0
           1           0           1           2           0           1
           0           0           0           0           0           0
Number of primitives per shell             I   N=         186
           6           3           3           1           1           1
           1           1           6           3           3           1
           1           1           1           1           6           3
           3           1           1           1           1           1
           6           3           3           1           1           1
           1           1           6           3           3           1
           1           1           1           1           6           3
           3           1           1           1           1           1
           6           3           3           1           1           1
           1           1           6           3           3           1
           1           1           1           1           6           3
           3           1           1           1           1           1
           6           3           3           1           1           1
           1           1           6           3           3           1
           1           1           1           1           6           3
           3           1           1           1           1           1
           3           1           3           1           3           1
           3           1           3           1           3           1
           3           1           3           1           3           1
           3           1           3           1           3           1
           6           3           3           1           1           1
           1           1           6           3           3           1
           1           1           1           1           6           3
           3           1           1           1           1           1
           3           1           3           1           3           1
           3           1           3           1           6           3
           3           1           1           1           1           1
           6           3           3           1           1           1
           1           1           3           1           6           3
           3           1           1           1           1           1
           3           1           3           1           3           1
Shell to atom map                          I   N=         186
           1           1           1           1           1           1
           1           1           2           2           2           2
           2           2           2           2           3           3
           3           3           3           3           3           3
           4           4           4           4           4           4
           4           4           5           5           5           5
           5           5           5           5           6           6
           6           6           6           6           6           6
           7           7           7           7           7           7
           7           7           8           8           8           8
           8           8           8           8           9           9
           9           9           9           9           9           9
          10          10          10          10          10          10
          10          10          11          11          11          11
          11          11          11          11          12          12
          12          12          12          12          12          12
          13          13          14          14          15          15
          16          16          17          17          18          18
          19          19          20          20          21          21
          22          22          23          23          24          24
          25          25          25          25          25          25
          25          25          26          26          26          26
          26          26          26          26          27          27
          27          27          27          27          27          27
          28          28          29          29          30          30
          31          31          32          32          33          33
          33          33          33          33          33          33
          34          34          34          34          34          34
          34          34          35          35          36          36
          36          36          36          36          36          36
          37          37          38          38          39          39
Primitive exponents                        R   N=         390
  4.17351100e+03  6.27457900e+02  1.42902100e+02  4.02343300e+01  1.28202100e+01
  4.39043700e+00  1.16263580e+01  2.71628000e+00  7.72218000e-01  1.16263580e+01
  2.71628000e+00  7.72218000e-01  2.12031300e-01  2.12031300e-01  8.00000000e-01
  6.39000000e-02  6.39000000e-02  3.04752490e+03  4.57369510e+02  1.03948690e+02
  2.92101550e+01  9.28666300e+00  3.16392700e+00  7.86827240e+00  1.88128850e+00
  5.44249300e-01  7.86827240e+00  1.88128850e+00  5.44249300e-01  1.68714400e-01
  1.68714400e-01  8.00000000e-01  4.38000000e-02  4.38000000e-02  3.04752490e+03
  4.57369510e+02  1.03948690e+02  2.92101550e+01  9.28666300e+00  3.16392700e+00
  7.86827240e+00  1.88128850e+00  5.44249300e-01  7.86827240e+00  1.88128850e+00
  5.44249300e-01  1.68714400e-01  1.68714400e-01  8.00000000e-01  4.38000000e-02
  4.38000000e-02  3.04752490e+03  4.57369510e+02  1.03948690e+02  2.92101550e+01
  9.28666300e+00  3.16392700e+00  7.86827240e+00  1.88128850e+00  5.44249300e-01
  7.86827240e+00  1.88128850e+00  5.44249300e-01  1.68714400e-01  1.68714400e-01
  8.00000000e-01  4.38000000e-02  4.38000000e-02  3.04752490e+03  4.57369510e+02
  1.03948690e+02  2.92101550e+01  9.28666300e+00  3.16392700e+00  7.86827240e+00
  1.88128850e+00  5.44249300e-01  7.86827240e+00  1.88128850e+00  5.44249300e-01
  1.68714400e-01  1.68714400e-01  8.00000000e-01  4.38000000e-02  4.38000000e-02
  3.04752490e+03  4.57369510e+02  1.03948690e+02  2.92101550e+01  9.28666300e+00
  3.16392700e+00  7.86827240e+00  1.88128850e+00  5.44249300e-01  7.86827240e+00
  1.88128850e+00  5.44249300e-01  1.68714400e-01  1.68714400e-01  8.00000000e-01
  4.38000000e-02  4.38000000e-02  3.04752490e+03  4.57369510e+02  1.03948690e+02
  2.92101550e+01  9.28666300e+00  3.16392700e+00  7.86827240e+00  1.88128850e+00
  5.44249300e-01  7.86827240e+00  1.88128850e+00  5.44249300e-01  1.68714400e-01
  1.68714400e-01  8.00000000e-01  4.38000000e-02  4.38000000e-02  3.04752490e+03
  4.57369510e+02  1.03948690e+02  2.92101550e+01  9.28666300e+00  3.16392700e+00
  7.86827240e+00  1.88128850e+00  5.44249300e-01  7.86827240e+00  1.88128850e+00
  5.44249300e-01  1.68714400e-01  1.68714400e-01  8.00000000e-01  4.38000000e-02
  4.38000000e-02  3.04752490e+03  4.57369510e+02  1.03948690e+02  2.92101550e+01
  9.28666300e+00  3.16392700e+00  7.86827240e+00  1.88128850e+00  5.44249300e-01
  7.86827240e+00  1.88128850e+00  5.44249300e-01  1.68714400e-01  1.68714400e-01
  8.00000000e-01  4.38000000e-02  4.38000000e-02  3.04752490e+03  4.57369510e+02
  1.03948690e+02  2.92101550e+01  9.28666300e+00  3.16392700e+00  7.86827240e+00
  1.88128850e+00  5.44249300e-01  7.86827240e+00  1.88128850e+00  5.44249300e-01
  1.68714400e-01  1.68714400e-01  8.00000000e-01  4.38000000e-02  4.38000000e-02
  3.04752490e+03  4.57369510e+02  1.03948690e+02  2.92101550e+01  9.28666300e+00
  3.16392700e+00  7.86827240e+00  1.88128850e+00  5.44249300e-01  7.86827240e+00
  1.88128850e+00  5.44249300e-01  1.68714400e-01  1.68714400e-01  8.00000000e-01
  4.38000000e-02  4.38000000e-02  3.04752490e+03  4.57369510e+02  1.03948690e+02
  2.92101550e+01  9.28666300e+00  3.16392700e+00  7.86827240e+00  1.88128850e+00
  5.44249300e-01  7.86827240e+00  1.88128850e+00  5.44249300e-01  1.68714400e-01
  1.68714400e-01  8.00000000e-01  4.38000000e-02  4.38000000e-02  1.87311370e+01
  2.82539370e+00  6.40121700e-01  1.61277800e-01  1.87311370e+01  2.82539370e+00
  6.40121700e-01  1.61277800e-01  1.87311370e+01  2.82539370e+00  6.40121700e-01
  1.61277800e-01  1.87311370e+01  2.82539370e+00  6.40121700e-01  1.61277800e-01
  1.87311370e+01  2.82539370e+00  6.40121700e-01  1.61277800e-01  1.87311370e+01
  2.82539370e+00  6.40121700e-01  1.61277800e-01  1.87311370e+01  2.82539370e+00
  6.40121700e-01  1.61277800e-01  1.87311370e+01  2.82539370e+00  6.40121700e-01
  1.61277800e-01  1.87311370e+01  2.82539370e+00  6.40121700e-01  1.61277800e-01
  1.87311370e+01  2.82539370e+00  6.40121700e-01  1.61277800e-01  1.87311370e+01
  2.82539370e+00  6.40121700e-01  1.61277800e-01  1.87311370e+01  2.82539370e+00
  6.40121700e-01  1.61277800e-01  3.04752490e+03  4.57369510e+02  1.03948690e+02
  2.92101550e+01  9.28666300e+00  3.16392700e+00  7.86827240e+00  1.88128850e+00
  5.44249300e-01  7.86827240e+00  1.88128850e+00  5.44249300e-01  1.68714400e-01
  1.68714400e-01  8.00000000e-01  4.38000000e-02  4.38000000e-02  3.04752490e+03
  4.57369510e+02  1.03948690e+02  2.92101550e+01  9.28666300e+00  3.16392700e+00
  7.86827240e+00  1.88128850e+00  5.44249300e-01  7.86827240e+00  1.88128850e+00
  5.44249300e-01  1.68714400e-01  1.68714400e-01  8.00000000e-01  4.38000000e-02
  4.38000000e-02  3.04752490e+03  4.57369510e+02  1.03948690e+02  2.92101550e+01
  9.28666300e+00  3.16392700e+00  7.86827240e+00  1.88128850e+00  5.44249300e-01
  7.86827240e+00  1.88128850e+00  5.44249300e-01  1.68714400e-01  1.68714400e-01
  8.00000000e-01  4.38000000e-02  4.38000000e-02  1.87311370e+01  2.82539370e+00
  6.40121700e-01  1.61277800e-01  1.87311370e+01  2.82539370e+00  6.40121700e-01
  1.61277800e-01  1.87311370e+01  2.82539370e+00  6.40121700e-01  1.61277800e-01
  1.87311370e+01  2.82539370e+00  6.40121700e-01  1.61277800e-01  1.87311370e+01
  2.82539370e+00  6.40121700e-01  1.61277800e-01  5.48467170e+03  8.25234950e+02
  1.88046960e+02  5.29645000e+01  1.68975700e+01  5.79963530e+00  1.55396160e+01
  3.59993360e+00  1.01376180e+00  1.55396160e+01  3.59993360e+00  1.01376180e+00
  2.70005800e-01  2.70005800e-01  8.00000000e-01  8.45000000e-02  8.45000000e-02
  5.48467170e+03  8.25234950e+02  1.88046960e+02  5.29645000e+01  1.68975700e+01
  5.79963530e+00  1.55396160e+01  3.59993360e+00  1.01376180e+00  1.55396160e+01
  3.59993360e+00  1.01376180e+00  2.70005800e-01  2.70005800e-01  8.00000000e-01
  8.45000000e-02  8.45000000e-02  1.87311370e+01  2.82539370e+00  6.40121700e-01
  1.61277800e-01  3.04752490e+03  4.57369510e+02  1.03948690e+02  2.92101550e+01
  9.28666300e+00  3.16392700e+00  7.86827240e+00  1.88128850e+00  5.44249300e-01
  7.86827240e+00  1.88128850e+00  5.44249300e-01  1.68714400e-01  1.68714400e-01
  8.00000000e-01  4.38000000e-02  4.38000000e-02  1.87311370e+01  2.82539370e+00
  6.40121700e-01  1.61277800e-01  1.87311370e+01  2.82539370e+00  6.40121700e-01
  1.61277800e-01  1.87311370e+01  2.82539370e+00  6.40121700e-01  1.61277800e-01
Contraction coefficients                   R   N=         390
  1.83479944e-03  1.39949958e-02  6.85869792e-02  2.32240930e-01  4.69069858e-01
  3.60454891e-01 -1.14961023e-01 -1.69118034e-01  1.14585223e+00  6.75800232e-02
  3.23907111e-01  7.40895255e-01  1.00000000e+00  1.00000000e+00  1.00000000e+00
  1.00000000e+00  1.00000000e+00  1.83470016e-03  1.40373012e-02  6.88426061e-02
  2.32184421e-01  4.67941342e-01  3.62312032e-01 -1.19332409e-01 -1.60854212e-01
  1.14345648e+00  6.89990956e-02  3.16423980e-01  7.44308252e-01  1.00000000e+00
  1.00000000e+00  1.00000000e+00  1.00000000e+00  1.00000000e+00  1.83470016e-03
  1.40373012e-02  6.88426061e-02  2.32184421e-01  4.67941342e-01  3.62312032e-01
 -1.19332409e-01 -1.60854212e-01  1.14345648e+00  6.89990956e-02  3.16423980e-01
  7.44308252e-01  1.00000000e+00  1.00000000e+00  1.00000000e+00  1.00000000e+00
  1.00000000e+00  1.83470016e-03  1.40373012e-02  6.88426061e-02  2.32184421e-01
  4.67941342e-01  3.62312032e-01 -1.19332409e-01 -1.60854212e-01  1.14345648e+00
  6.89990956e-02  3.16423980e-01  7.44308252e-01  1.00000000e+00  1.00000000e+00
  1.00000000e+00  1.00000000e+00  1.00000000e+00  1.83470016e-03  1.40373012e-02
  6.88426061e-02  2.32184421e-01  4.67941342e-01  3.62312032e-01 -1.19332409e-01
 -1.60854212e-01  1.14345648e+00  6.89990956e-02  3.16423980e-01  7.44308252e-01
  1.00000000e+00  1.00000000e+00  1.00000000e+00  1.00000000e+00  1.00000000e+00
  1.83470016e-03  1.40373012e-02  6.88426061e-02  2.32184421e-01  4.67941342e-01
  3.62312032e-01 -1.19332409e-01 -1.60854212e-01  1.14345648e+00  6.89990956e-02
  3.16423980e-01  7.44308252e-01  1.00000000e+00  1.00000000e+00  1.00000000e+00
  1.00000000e+00  1.00000000e+00  1.83470016e-03  1.40373012e-02  6.88426061e-02
  2.32184421e-01  4.67941342e-01  3.62312032e-01 -1.19332409e-01 -1.60854212e-01
  1.14345648e+00  6.89990956e-02  3.16423980e-01  7.44308252e-01  1.00000000e+00
  1.00000000e+00  1.00000000e+00  1.00000000e+00  1.00000000e+00  1.83470016e-03
  1.40373012e-02  6.88426061e-02  2.32184421e-01  4.67941342e-01  3.62312032e-01
 -1.19332409e-01 -1.60854212e-01  1.14345648e+00  6.89990956e-02  3.16423980e-01
  7.44308252e-01  1.00000000e+00  1.00000000e+00  1.00000000e+00  1.00000000e+00
  1.00000000e+00  1.83470016e-03  1.40373012e-02  6.88426061e-02  2.32184421e-01
  4.67941342e-01  3.62312032e-01 -1.19332409e-01 -1.60854212e-01  1.14345648e+00
  6.89990956e-02  3.16423980e-01  7.44308252e-01  1.00000000e+00  1.00000000e+00
  1.00000000e+00  1.00000000e+00  1.00000000e+00  1.83470016e-03  1.40373012e-02
  6.88426061e-02  2.32184421e-01  4.67941342e-01  3.62312032e-01 -1.19332409e-01
 -1.60854212e-01  1.14345648e+00  6.89990956e-02  3.16423980e-01  7.44308252e-01
  1.00000000e+00  1.00000000e+00  1.00000000e+00  1.00000000e+00  1.00000000e+00
  1.83470016e-03  1.40373012e-02  6.88426061e-02  2.32184421e-01  4.67941342e-01
  3.62312032e-01 -1.19332409e-01 -1.60854212e-01  1.14345648e+00  6.89990956e-02
  3.16423980e-01  7.44308252e-01  1.00000000e+00  1.00000000e+00  1.00000000e+00
  1.00000000e+00  1.00000000e+00  1.83470016e-03  1.40373012e-02  6.88426061e-02
  2.32184421e-01  4.67941342e-01  3.62312032e-01 -1.19332409e-01 -1.60854212e-01
  1.14345648e+00  6.89990956e-02  3.16423980e-01  7.44308252e-01  1.00000000e+00
  1.00000000e+00  1.00000000e+00  1.00000000e+00  1.00000000e+00  3.34945995e-02
  2.34726947e-01  8.13757318e-01  1.00000000e+00  3.34945995e-02  2.34726947e-01
  8.13757318e-01  1.00000000e+00  3.34945995e-02  2.34726947e-01  8.13757318e-01
  1.00000000e+00  3.34945995e-02  2.34726947e-01  8.13757318e-01  1.00000000e+00
  3.34945995e-02  2.34726947e-01  8.13757318e-01  1.00000000e+00  3.34945995e-02
  2.34726947e-01  8.13757318e-01  1.00000000e+00  3.34945995e-02  2.34726947e-01
  8.13757318e-01  1.00000000e+00  3.34945995e-02  2.34726947e-01  8.13757318e-01
  1.00000000e+00  3.34945995e-02  2.34726947e-01  8.13757318e-01  1.00000000e+00
  3.34945995e-02  2.34726947e-01  8.13757318e-01  1.00000000e+00  3.34945995e-02
  2.34726947e-01  8.13757318e-01  1.00000000e+00  3.34945995e-02  2.34726947e-01
  8.13757318e-01  1.00000000e+00  1.83470016e-03  1.40373012e-02  6.88426061e-02
  2.32184421e-01  4.67941342e-01  3.62312032e-01 -1.19332409e-01 -1.60854212e-01
  1.14345648e+00  6.89990956e-02  3.16423980e-01  7.44308252e-01  1.00000000e+00
  1.00000000e+00  1.00000000e+00  1.00000000e+00  1.00000000e+00  1.83470016e-03
  1.40373012e-02  6.88426061e-02  2.32184421e-01  4.67941342e-01  3.62312032e-01
 -1.19332409e-01 -1.60854212e-01  1.14345648e+00  6.89990956e-02  3.16423980e-01
  7.44308252e-01  1.00000000e+00  1.00000000e+00  1.00000000e+00  1.00000000e+00
  1.00000000e+00  1.83470016e-03  1.40373012e-02  6.88426061e-02  2.32184421e-01
  4.67941342e-01  3.62312032e-01 -1.19332409e-01 -1.60854212e-01  1.14345648e+00
  6.89990956e-02  3.16423980e-01  7.44308252e-01  1.00000000e+00  1.00000000e+00
  1.00000000e+00  1.00000000e+00  1.00000000e+00  3.34945995e-02  2.34726947e-01
  8.13757318e-01  1.00000000e+00  3.34945995e-02  2.34726947e-01  8.13757318e-01
  1.00000000e+00  3.34945995e-02  2.34726947e-01  8.13757318e-01  1.00000000e+00
  3.34945995e-02  2.34726947e-01  8.13757318e-01  1.00000000e+00  3.34945995e-02
  2.34726947e-01  8.13757318e-01  1.00000000e+00  1.83109981e-03  1.39500985e-02
  6.84450927e-02  2.32714275e-01  4.70192950e-01  3.58520862e-01 -1.10777504e-01
 -1.48026305e-01  1.13076704e+00  7.08742995e-02  3.39752798e-01  7.27158595e-01
  1.00000000e+00  1.00000000e+00  1.00000000e+00  1.00000000e+00  1.00000000e+00
  1.83109981e-03  1.39500985e-02  6.84450927e-02  2.32714275e-01  4.70192950e-01
  3.58520862e-01 -1.10777504e-01 -1.48026305e-01  1.13076704e+00  7.08742995e-02
  3.39752798e-01  7.27158595e-01  1.00000000e+00  1.00000000e+00  1.00000000e+00
  1.00000000e+00  1.00000000e+00  3.34945995e-02  2.34726947e-01  8.13757318e-01
  1.00000000e+00  1.83470016e-03  1.40373012e-02  6.88426061e-02  2.32184421e-01
  4.67941342e-01  3.62312032e-01 -1.19332409e-01 -1.60854212e-01  1.14345648e+00
  6.89990956e-02  3.16423980e-01  7.44308252e-01  1.00000000e+00  1.00000000e+00
  1.00000000e+00  1.00000000e+00  1.00000000e+00  3.34945995e-02  2.34726947e-01
  8.13757318e-01  1.00000000e+00  3.34945995e-02  2.34726947e-01  8.13757318e-01
  1.00000000e+00  3.34945995e-02  2.34726947e-01  8.13757318e-01  1.00000000e+00
Coordinates of each shell                  R   N=         558
 -5.52792042e+00  6.11256776e-01  3.50654704e+00 -5.52792042e+00  6.11256776e-01
  3.50654704e+00 -5.52792042e+00  6.11256776e-01  3.50654704e+00 -5.52792042e+00
  6.11256776e-01  3.50654704e+00 -5.52792042e+00  6.11256776e-01  3.50654704e+00
 -5.52792042e+00  6.11256776e-01  3.50654704e+00 -5.52792042e+00  6.11256776e-01
  3.50654704e+00 -5.52792042e+00  6.11256776e-01  3.50654704e+00 -2.94552140e+00
  1.02863757e+00  4.47109417e+00 -2.94552140e+00  1.02863757e+00  4.47109417e+00
 -2.94552140e+00  1.02863757e+00  4.47109417e+00 -2.94552140e+00  1.02863757e+00
  4.47109417e+00 -2.94552140e+00  1.02863757e+00  4.47109417e+00 -2.94552140e+00
  1.02863757e+00  4.47109417e+00 -2.94552140e+00  1.02863757e+00  4.47109417e+00
 -2.94552140e+00  1.02863757e+00  4.47109417e+00 -1.02970322e+00 -8.88246771e-01
  3.42202804e+00 -1.02970322e+00 -8.88246771e-01  3.42202804e+00 -1.02970322e+00
 -8.88246771e-01  3.42202804e+00 -1.02970322e+00 -8.88246771e-01  3.42202804e+00
 -1.02970322e+00 -8.88246771e-01  3.42202804e+00 -1.02970322e+00 -8.88246771e-01
  3.42202804e+00 -1.02970322e+00 -8.88246771e-01  3.42202804e+00 -1.02970322e+00
 -8.88246771e-01  3.42202804e+00 -7.41987809e-01 -6.13731435e-01  4.98837100e-01
 -7.41987809e-01 -6.13731435e-01  4.98837100e-01 -7.41987809e-01 -6.13731435e-01
  4.98837100e-01 -7.41987809e-01 -6.13731435e-01  4.98837100e-01 -7.41987809e-01
 -6.13731435e-01  4.98837100e-01 -7.41987809e-01 -6.13731435e-01  4.98837100e-01
 -7.41987809e-01 -6.13731435e-01  4.98837100e-01 -7.41987809e-01 -6.13731435e-01
  4.98837100e-01  2.66990006e+00  2.81660966e+00  1.33565155e+00  2.66990006e+00
  2.81660966e+00  1.33565155e+00  2.66990006e+00  2.81660966e+00  1.33565155e+00
  2.66990006e+00  2.81660966e+00  1.33565155e+00  2.66990006e+00  2.81660966e+00
  1.33565155e+00  2.66990006e+00  2.81660966e+00  1.33565155e+00  2.66990006e+00
  2.81660966e+00  1.33565155e+00  2.66990006e+00  2.81660966e+00  1.33565155e+00
  1.32141567e+00  1.26208151e+00 -3.38866196e-01  1.32141567e+00  1.26208151e+00
 -3.38866196e-01  1.32141567e+00  1.26208151e+00 -3.38866196e-01  1.32141567e+00
  1.26208151e+00 -3.38866196e-01  1.32141567e+00  1.26208151e+00 -3.38866196e-01
  1.32141567e+00  1.26208151e+00 -3.38866196e-01  1.32141567e+00  1.26208151e+00
 -3.38866196e-01  1.32141567e+00  1.26208151e+00 -3.38866196e-01  4.47491381e+00
  4.51511917e+00  4.22354941e-01  4.47491381e+00  4.51511917e+00  4.22354941e-01
  4.47491381e+00  4.51511917e+00  4.22354941e-01  4.47491381e+00  4.51511917e+00
  4.22354941e-01  4.47491381e+00  4.51511917e+00  4.22354941e-01  4.47491381e+00
  4.51511917e+00  4.22354941e-01  4.47491381e+00  4.51511917e+00  4.22354941e-01
  4.47491381e+00  4.51511917e+00  4.22354941e-01  4.98417267e+00  4.69908478e+00
 -2.15697216e+00  4.98417267e+00  4.69908478e+00 -2.15697216e+00  4.98417267e+00
  4.69908478e+00 -2.15697216e+00  4.98417267e+00  4.69908478e+00 -2.15697216e+00
  4.98417267e+00  4.69908478e+00 -2.15697216e+00  4.98417267e+00  4.69908478e+00
 -2.15697216e+00  4.98417267e+00  4.69908478e+00 -2.15697216e+00  4.98417267e+00
  4.69908478e+00 -2.15697216e+00 -5.56607616e+00 -6.02288763e-01  1.00663685e+00
 -5.56607616e+00 -6.02288763e-01  1.00663685e+00 -5.56607616e+00 -6.02288763e-01
  1.00663685e+00 -5.56607616e+00 -6.02288763e-01  1.00663685e+00 -5.56607616e+00
 -6.02288763e-01  1.00663685e+00 -5.56607616e+00 -6.02288763e-01  1.00663685e+00
 -5.56607616e+00 -6.02288763e-01  1.00663685e+00 -5.56607616e+00 -6.02288763e-01
  1.00663685e+00 -3.33256252e+00  2.71494561e-01 -6.02738394e-01 -3.33256252e+00
  2.71494561e-01 -6.02738394e-01 -3.33256252e+00  2.71494561e-01 -6.02738394e-01
 -3.33256252e+00  2.71494561e-01 -6.02738394e-01 -3.33256252e+00  2.71494561e-01
 -6.02738394e-01 -3.33256252e+00  2.71494561e-01 -6.02738394e-01 -3.33256252e+00
  2.71494561e-01 -6.02738394e-01 -3.33256252e+00  2.71494561e-01 -6.02738394e-01
  1.83534878e+00  1.45836487e+00 -2.93350477e+00  1.83534878e+00  1.45836487e+00
 -2.93350477e+00  1.83534878e+00  1.45836487e+00 -2.93350477e+00  1.83534878e+00
  1.45836487e+00 -2.93350477e+00  1.83534878e+00  1.45836487e+00 -2.93350477e+00
  1.83534878e+00  1.45836487e+00 -2.93350477e+00  1.83534878e+00  1.45836487e+00
 -2.93350477e+00  1.83534878e+00  1.45836487e+00 -2.93350477e+00  3.64661389e+00
  3.15336346e+00 -3.83373870e+00  3.64661389e+00  3.15336346e+00 -3.83373870e+00
  3.64661389e+00  3.15336346e+00 -3.83373870e+00  3.64661389e+00  3.15336346e+00
 -3.83373870e+00  3.64661389e+00  3.15336346e+00 -3.83373870e+00  3.64661389e+00
  3.15336346e+00 -3.83373870e+00  3.64661389e+00  3.15336346e+00 -3.83373870e+00
  3.64661389e+00  3.15336346e+00 -3.83373870e+00 -5.53192270e+00 -2.68947880e+00
  1.16281258e+00 -5.53192270e+00 -2.68947880e+00  1.16281258e+00 -7.34938814e+00