Generated by Psi4
     FORCE                           RHF                       TESTBAS
Number of atoms                            I               26
Charge                                     I                0
Multiplicity                               I                1
Number of electrons                        I               82
Number of alpha electrons                  I               41
Number of beta electrons                   I               41
Number of basis functions                  I              239
Number of independent functions            I              239
Atomic numbers                             I   N=          26
           6           6           6           1           1           7
           6           6           6           6           6           1
           1           1           1           1           6           1
           1           1           1           6           1           1
           1           1
Nuclear charges                            R   N=          26
  6.00000000e+00  6.00000000e+00  6.00000000e+00  1.00000000e+00  1.00000000e+00
  7.00000000e+00  6.00000000e+00  6.00000000e+00  6.00000000e+00  6.00000000e+00
  6.00000000e+00  1.00000000e+00  1.00000000e+00  1.00000000e+00  1.00000000e+00
  1.00000000e+00  6.00000000e+00  1.00000000e+00  1.00000000e+00  1.00000000e+00
  1.00000000e+00  6.00000000e+00  1.00000000e+00  1.00000000e+00  1.00000000e+00
  1.00000000e+00
Current cartesian coordinates              R   N=          78
  1.40786632e+00 -8.16314700e-01 -6.43175013e-01 -4.02066715e-01 -1.73198873e+00
  1.37648267e+00 -2.67049458e+00  4.28559923e-02  1.88699324e+00  6.32473635e-01
 -2.01430759e+00  3.15654337e+00 -1.18376801e+00 -3.57571864e+00  8.43773791e-01
 -4.45481993e+00 -1.30374938e+00  3.53721210e+00  3.79536080e+00  1.56264630e-01
 -2.93761362e-02  5.44672419e+00  1.01125405e+00 -1.90704287e+00  4.73407938e+00
  9.05935291e-01 -4.44659084e+00  2.36269165e+00 -6.73820037e-02 -5.09024176e+00
  7.24234168e-01 -9.21287631e-01 -3.20574076e+00  4.37264717e+00  2.39856152e-01
  1.94271676e+00 -1.10828359e+00 -1.69503722e+00 -3.72993068e+00  7.29002108e+00
  1.75330421e+00 -1.38327042e+00  6.01508204e+00  1.56514134e+00 -5.91100925e+00
  1.79381349e+00 -1.73282516e-01 -7.06204531e+00 -1.82167522e+00  2.63700965e+00
  2.89167872e+00 -3.66618890e+00  3.32795082e-01  8.62029407e-02 -7.91290072e-01
  2.42344488e+00  4.68278340e+00 -3.43926828e+00  3.88350916e+00  3.23212451e+00
 -5.66774558e-01  3.59000399e+00  1.54827064e+00 -6.93505940e+00 -1.30132002e-01
  3.83415072e+00 -3.65036881e+00 -1.58410704e+00  5.26513512e+00 -7.85006045e+00
 -5.65750913e-03  1.97900116e+00 -6.91990248e+00  1.78223766e+00  4.66840849e+00
 -8.11241864e+00 -1.34080183e+00  5.03150593e+00
Integer atomic weights                     I   N=          26
          12          12          12           1           1          14
          12          12          12          12          12           1
           1           1           1           1          12           1
           1           1           1          12           1           1
           1           1
Real atomic weights                        R   N=          26
  1.20000000e+01  1.20000000e+01  1.20000000e+01  1.00782503e+00  1.00782503e+00
  1.40030740e+01  1.20000000e+01  1.20000000e+01  1.20000000e+01  1.20000000e+01
  1.20000000e+01  1.00782503e+00  1.00782503e+00  1.00782503e+00  1.00782503e+00
  1.00782503e+00  1.20000000e+01  1.00782503e+00  1.00782503e+00  1.00782503e+00
  1.00782503e+00  1.20000000e+01  1.00782503e+00  1.00782503e+00  1.00782503e+00
  1.00782503e+00
Number of primitive shells                 I              247
Number of contracted shells                I              118
Pure/Cartesian d shells                    I                1
Pure/Cartesian f shells                    I                1
Highest angular momentum                   I                2
Largest degree of contraction              I                6
Shell types                                I   N=         118
           0           0           1           0           1           2
           0           1           0           0           1           0
           1           2           0           1           0           0
           1           0           1           2           0           1
           0           0           0           0           0           0
           1           0           1           2           0           1
           0           0           1           0           1           2
           0           1           0           0           1           0
           1           2           0           1           0           0
           1           0           1           2           0           1
           0           0           1           0           1           2
           0           1           0           0           1           0
           1           2           0           1           0           0
           0           0           0           0           0           0
           0           0           0           0           1           0
           1           2           0           1           0           0
           0           0           0           0           0           0
           0           0           1           0           1           2
           0           1           0           0           0           0
           0           0           0           0
Number of primitives per shell             I   N=         118
           6           3           3           1           1           1
           1           1           6           3           3           1
           1           1           1           1           6           3
           3           1           1           1           1           1
           3           1           3           1           6           3
           3           1           1           1           1           1
           6           3           3           1           1           1
           1           1           6           3           3           1
           1           1           1           1           6           3
           3           1           1           1           1           1
           6           3           3           1           1           1
           1           1           6           3           3           1
           1           1           1           1           3           1
           3           1           3           1           3           1
           3           1           6           3           3           1
           1           1           1           1           3           1
           3           1           3           1           3           1
           6           3           3           1           1           1
           1           1           3           1           3           1
           3           1           3           1
Shell to atom map                          I   N=         118
           1           1           1           1           1           1
           1           1           2           2           2           2
           2           2           2           2           3           3
           3           3           3           3           3           3
           4           4           5           5           6           6
           6           6           6           6           6           6
           7           7           7           7           7           7
           7           7           8           8           8           8
           8           8           8           8           9           9
           9           9           9           9           9           9
          10          10          10          10          10          10
          10          10          11          11          11          11
          11          11          11          11          12          12
          13          13          14          14          15          15
          16          16          17          17          17          17
          17          17          17          17          18          18
          19          19          20          20          21          21
          22          22          22          22          22          22
          22          22          23          23          24          24
          25          25          26          26
Primitive exponents                        R   N=         247
  3.04752490e+03  4.57369510e+02  1.03948690e+02  2.92101550e+01  9.28666300e+00
  3.16392700e+00  7.86827240e+00  1.88128850e+00  5.44249300e-01  7.86827240e+00
  1.88128850e+00  5.44249300e-01  1.68714400e-01  1.68714400e-01  8.00000000e-01
  4.38000000e-02  4.38000000e-02  3.04752490e+03  4.57369510e+02  1.03948690e+02
  2.92101550e+01  9.28666300e+00  3.16392700e+00  7.86827240e+00  1.88128850e+00
  5.44249300e-01  7.86827240e+00  1.88128850e+00  5.44249300e-01  1.68714400e-01
  1.68714400e-01  8.00000000e-01  4.38000000e-02  4.38000000e-02  3.04752490e+03
  4.57369510e+02  1.03948690e+02  2.92101550e+01  9.28666300e+00  3.16392700e+00
  7.86827240e+00  1.88128850e+00  5.44249300e-01  7.86827240e+00  1.88128850e+00
  5.44249300e-01  1.68714400e-01  1.68714400e-01  8.00000000e-01  4.38000000e-02
  4.38000000e-02  1.87311370e+01  2.82539370e+00  6.40121700e-01  1.61277800e-01
  1.87311370e+01  2.82539370e+00  6.40121700e-01  1.61277800e-01  4.17351100e+03
  6.27457900e+02  1.42902100e+02  4.02343300e+01  1.28202100e+01  4.39043700e+00
  1.16263580e+01  2.71628000e+00  7.72218000e-01  1.16263580e+01  2.71628000e+00
  7.72218000e-01  2.12031300e-01  2.12031300e-01  8.00000000e-01  6.39000000e-02
  6.39000000e-02  3.04752490e+03  4.57369510e+02  1.03948690e+02  2.92101550e+01
  9.28666300e+00  3.16392700e+00  7.86827240e+00  1.88128850e+00  5.44249300e-01
  7.86827240e+00  1.88128850e+00  5.44249300e-01  1.68714400e-01  1.68714400e-01
  8.00000000e-01  4.38000000e-02  4.38000000e-02  3.04752490e+03  4.57369510e+02
  1.03948690e+02  2.92101550e+01  9.28666300e+00  3.16392700e+00  7.86827240e+00
  1.88128850e+00  5.44249300e-01  7.86827240e+00  1.88128850e+00  5.44249300e-01
  1.68714400e-01  1.68714400e-01  8.00000000e-01  4.38000000e-02  4.38000000e-02
  3.04752490e+03  4.57369510e+02  1.03948690e+02  2.92101550e+01  9.28666300e+00
  3.16392700e+00  7.86827240e+00  1.88128850e+00  5.44249300e-01  7.86827240e+00
  1.88128850e+00  5.44249300e-01  1.68714400e-01  1.68714400e-01  8.00000000e-01
  4.38000000e-02  4.38000000e-02  3.04752490e+03  4.57369510e+02  1.03948690e+02
  2.92101550e+01  9.28666300e+00  3.16392700e+00  7.86827240e+00  1.88128850e+00
  5.44249300e-01  7.86827240e+00  1.88128850e+00  5.44249300e-01  1.68714400e-01
  1.68714400e-01  8.00000000e-01  4.38000000e-02  4.38000000e-02  3.04752490e+03
  4.57369510e+02  1.03948690e+02  2.92101550e+01  9.28666300e+00  3.16392700e+00
  7.86827240e+00  1.88128850e+00  5.44249300e-01  7.86827240e+00  1.88128850e+00
  5.44249300e-01  1.68714400e-01  1.68714400e-01  8.00000000e-01  4.38000000e-02
  4.38000000e-02  1.87311370e+01  2.82539370e+00  6.40121700e-01  1.61277800e-01
  1.87311370e+01  2.82539370e+00  6.40121700e-01  1.61277800e-01  1.87311370e+01
  2.82539370e+00  6.40121700e-01  1.61277800e-01  1.87311370e+01  2.82539370e+00
  6.40121700e-01  1.61277800e-01  1.87311370e+01  2.82539370e+00  6.40121700e-01
  1.61277800e-01  3.04752490e+03  4.57369510e+02  1.03948690e+02  2.92101550e+01
  9.28666300e+00  3.16392700e+00  7.86827240e+00  1.88128850e+00  5.44249300e-01
  7.86827240e+00  1.88128850e+00  5.44249300e-01  1.68714400e-01  1.68714400e-01
  8.00000000e-01  4.38000000e-02  4.38000000e-02  1.87311370e+01  2.82539370e+00
  6.40121700e-01  1.61277800e-01  1.87311370e+01  2.82539370e+00  6.40121700e-01
  1.61277800e-01  1.87311370e+01  2.82539370e+00  6.40121700e-01  1.61277800e-01
  1.87311370e+01  2.82539370e+00  6.40121700e-01  1.61277800e-01  3.04752490e+03
  4.57369510e+02  1.03948690e+02  2.92101550e+01  9.28666300e+00  3.16392700e+00
  7.86827240e+00  1.88128850e+00  5.44249300e-01  7.86827240e+00  1.88128850e+00
  5.44249300e-01  1.68714400e-01  1.68714400e-01  8.00000000e-01  4.38000000e-02
  4.38000000e-02  1.87311370e+01  2.82539370e+00  6.40121700e-01  1.61277800e-01
  1.87311370e+01  2.82539370e+00  6.40121700e-01  1.61277800e-01  1.87311370e+01
  2.82539370e+00  6.40121700e-01  1.61277800e-01  1.87311370e+01  2.82539370e+00
  6.40121700e-01  1.61277800e-01
Contraction coefficients                   R   N=         247
  1.83470016e-03  1.40373012e-02  6.88426061e-02  2.32184421e-01  4.67941342e-01
  3.62312032e-01 -1.19332409e-01 -1.60854212e-01  1.14345648e+00  6.89990956e-02
  3.16423980e-01  7.44308252e-01  1.00000000e+00  1.00000000e+00  1.00000000e+00
  1.00000000e+00  1.00000000e+00  1.83470016e-03  1.40373012e-02  6.88426061e-02
  2.32184421e-01  4.67941342e-01  3.62312032e-01 -1.19332409e-01 -1.60854212e-01
  1.14345648e+00  6.89990956e-02  3.16423980e-01  7.44308252e-01  1.00000000e+00
  1.00000000e+00  1.00000000e+00  1.00000000e+00  1.00000000e+00  1.83470016e-03
  1.40373012e-02  6.88426061e-02  2.32184421e-01  4.67941342e-01  3.62312032e-01
 -1.19332409e-01 -1.60854212e-01  1.14345648e+00  6.89990956e-02  3.16423980e-01
  7.44308252e-01  1.00000000e+00  1.00000000e+00  1.00000000e+00  1.00000000e+00
  1.00000000e+00  3.34945995e-02  2.34726947e-01  8.13757318e-01  1.00000000e+00
  3.34945995e-02  2.34726947e-01  8.13757318e-01  1.00000000e+00  1.83479944e-03
  1.39949958e-02  6.85869792e-02  2.32240930e-01  4.69069858e-01  3.60454891e-01
 -1.14961023e-01 -1.69118034e-01  1.14585223e+00  6.75800232e-02  3.23907111e-01
  7.40895255e-01  1.00000000e+00  1.00000000e+00  1.00000000e+00  1.00000000e+00
  1.00000000e+00  1.83470016e-03  1.40373012e-02  6.88426061e-02  2.32184421e-01
  4.67941342e-01  3.62312032e-01 -1.19332409e-01 -1.60854212e-01  1.14345648e+00
  6.89990956e-02  3.16423980e-01  7.44308252e-01  1.00000000e+00  1.00000000e+00
  1.00000000e+00  1.00000000e+00  1.00000000e+00  1.83470016e-03  1.40373012e-02
  6.88426061e-02  2.32184421e-01  4.67941342e-01  3.62312032e-01 -1.19332409e-01
 -1.60854212e-01  1.14345648e+00  6.89990956e-02  3.16423980e-01  7.44308252e-01
  1.00000000e+00  1.00000000e+00  1.00000000e+00  1.00000000e+00  1.00000000e+00
  1.83470016e-03  1.40373012e-02  6.88426061e-02  2.32184421e-01  4.67941342e-01
  3.62312032e-01 -1.19332409e-01 -1.60854212e-01  1.14345648e+00  6.89990956e-02
  3.16423980e-01  7.44308252e-01  1.00000000e+00  1.00000000e+00  1.00000000e+00
  1.00000000e+00  1.00000000e+00  1.83470016e-03  1.40373012e-02  6.88426061e-02
  2.32184421e-01  4.67941342e-01  3.62312032e-01 -1.19332409e-01 -1.60854212e-01
  1.14345648e+00  6.89990956e-02  3.16423980e-01  7.44308252e-01  1.00000000e+00
  1.00000000e+00  1.00000000e+00  1.00000000e+00  1.00000000e+00  1.83470016e-03
  1.40373012e-02  6.88426061e-02  2.32184421e-01  4.67941342e-01  3.62312032e-01
 -1.19332409e-01 -1.60854212e-01  1.14345648e+00  6.89990956e-02  3.16423980e-01
  7.44308252e-01  1.00000000e+00  1.00000000e+00  1.00000000e+00  1.00000000e+00
  1.00000000e+00  3.34945995e-02  2.34726947e-01  8.13757318e-01  1.00000000e+00
  3.34945995e-02  2.34726947e-01  8.13757318e-01  1.00000000e+00  3.34945995e-02
  2.34726947e-01  8.13757318e-01  1.00000000e+00  3.34945995e-02  2.34726947e-01
  8.13757318e-01  1.00000000e+00  3.34945995e-02  2.34726947e-01  8.13757318e-01
  1.00000000e+00  1.83470016e-03  1.40373012e-02  6.88426061e-02  2.32184421e-01
  4.67941342e-01  3.62312032e-01 -1.19332409e-01 -1.60854212e-01  1.14345648e+00
  6.89990956e-02  3.16423980e-01  7.44308252e-01  1.00000000e+00  1.00000000e+00
  1.00000000e+00  1.00000000e+00  1.00000000e+00  3.34945995e-02  2.34726947e-01
  8.13757318e-01  1.00000000e+00  3.34945995e-02  2.34726947e-01  8.13757318e-01
  1.00000000e+00  3.34945995e-02  2.34726947e-01  8.13757318e-01  1.00000000e+00
  3.34945995e-02  2.34726947e-01  8.13757318e-01  1.00000000e+00  1.83470016e-03
  1.40373012e-02  6.88426061e-02  2.32184421e-01  4.67941342e-01  3.62312032e-01
 -1.19332409e-01 -1.60854212e-01  1.14345648e+00  6.89990956e-02  3.16423980e-01
  7.44308252e-01  1.00000000e+00  1.00000000e+00  1.00000000e+00  1.00000000e+00
  1.00000000e+00  3.34945995e-02  2.34726947e-01  8.13757318e-01  1.00000000e+00
  3.34945995e-02  2.34726947e-01  8.13757318e-01  1.00000000e+00  3.34945995e-02
  2.34726947e-01  8.13757318e-01  1.00000000e+00  3.34945995e-02  2.34726947e-01
  8.13757318e-01  1.00000000e+00
Coordinates of each shell                  R   N=         354
  1.40786632e+00 -8.16314700e-01 -6.43175013e-01  1.40786632e+00 -8.16314700e-01
 -6.43175013e-01  1.40786632e+00 -8.16314700e-01 -6.43175013e-01  1.40786632e+00
 -8.16314700e-01 -6.43175013e-01  1.40786632e+00 -8.16314700e-01 -6.43175013e-01
  1.40786632e+00 -8.16314700e-01 -6.43175013e-01  1.40786632e+00 -8.16314700e-01
 -6.43175013e-01  1.40786632e+00 -8.16314700e-01 -6.43175013e-01 -4.02066715e-01
 -1.73198873e+00  1.37648267e+00 -4.02066715e-01 -1.73198873e+00  1.37648267e+00
 -4.02066715e-01 -1.73198873e+00  1.37648267e+00 -4.02066715e-01 -1.73198873e+00
  1.37648267e+00 -4.02066715e-01 -1.73198873e+00  1.37648267e+00 -4.02066715e-01
 -1.73198873e+00  1.37648267e+00 -4.02066715e-01 -1.73198873e+00  1.37648267e+00
 -4.02066715e-01 -1.73198873e+00  1.37648267e+00 -2.67049458e+00  4.28559923e-02
  1.88699324e+00 -2.67049458e+00  4.28559923e-02  1.88699324e+00 -2.67049458e+00
  4.28559923e-02  1.88699324e+00 -2.67049458e+00  4.28559923e-02  1.88699324e+00
 -2.67049458e+00  4.28559923e-02  1.88699324e+00 -2.67049458e+00  4.28559923e-02
  1.88699324e+00 -2.67049458e+00  4.28559923e-02  1.88699324e+00 -2.67049458e+00
  4.28559923e-02  1.88699324e+00  6.32473635e-01 -2.01430759e+00  3.15654337e+00
  6.32473635e-01 -2.01430759e+00  3.15654337e+00 -1.18376801e+00 -3.57571864e+00
  8.43773791e-01 -1.18376801e+00 -3.57571864e+00  8.43773791e-01 -4.45481993e+00
 -1.30374938e+00  3.53721210e+00 -4.45481993e+00 -1.30374938e+00  3.53721210e+00
 -4.45481993e+00 -1.30374938e+00  3.53721210e+00 -4.45481993e+00 -1.30374938e+00
  3.53721210e+00 -4.45481993e+00 -1.30374938e+00  3.53721210e+00 -4.45481993e+00
 -1.30374938e+00  3.53721210e+00 -4.45481993e+00 -1.30374938e+00  3.53721210e+00
 -4.45481993e+00 -1.30374938e+00  3.53721210e+00  3.79536080e+00  1.56264630e-01
 -2.93761362e-02  3.79536080e+00  1.56264630e-01 -2.93761362e-02  3.79536080e+00
  1.56264630e-01 -2.93761362e-02  3.79536080e+00  1.56264630e-01 -2.93761362e-02
  3.79536080e+00  1.56264630e-01 -2.93761362e-02  3.79536080e+00  1.56264630e-01
 -2.93761362e-02  3.79536080e+00  1.56264630e-01 -2.93761362e-02  3.79536080e+00
  1.56264630e-01 -2.93761362e-02  5.44672419e+00  1.01125405e+00 -1.90704287e+00
  5.44672419e+00  1.01125405e+00 -1.90704287e+00  5.44672419e+00  1.01125405e+00
 -1.90704287e+00  5.44672419e+00  1.01125405e+00 -1.90704287e+00  5.44672419e+00
  1.01125405e+00 -1.90704287e+00  5.44672419e+00  1.01125405e+00 -1.90704287e+00
  5.44672419e+00  1.01125405e+00 -1.90704287e+00  5.44672419e+00  1.01125405e+00
 -1.90704287e+00  4.73407938e+00  9.05935291e-01 -4.44659084e+00  4.73407938e+00
  9.05935291e-01 -4.44659084e+00  4.73407938e+00  9.05935291e-01 -4.44659084e+00
  4.73407938e+00  9.05935291e-01 -4.44659084e+00  4.73407938e+00  9.05935291e-01
 -4.44659084e+00  4.73407938e+00  9.05935291e-01 -4.44659084e+00  4.73407938e+00
  9.05935291e-01 -4.44659084e+00  4.73407938e+00  9.05935291e-01 -4.44659084e+00
  2.36269165e+00 -6.73820037e-02 -5.09024176e+00  2.36269165e+00 -6.73820037e-02
 -5.09024176e+00  2.36269165e+00 -6.73820037e-02 -5.09024176e+00  2.36269165e+00
 -6.73820037e-02 -5.09024176e+00  2.36269165e+00 -6.73820037e-02 -5.09024176e+00
  2.36269165e+00 -6.73820037e-02 -5.09024176e+00  2.36269165e+00 -6.73820037e-02
 -5.09024176e+00  2.36269165e+00 -6.73820037e-02 -5.09024176e+00  7.24234168e-01
 -9.21287631e-01 -3.20574076e+00  7.24234168e-01 -9.21287631e-01 -3.20574076e+00
  7.24234168e-01 -9.21287631e-01 -3.20574076e+00  7.24234168e-01 -9.21287631e-01
 -3.20574076e+00  7.24234168e-01 -9.21287631e-01 -3.20574076e+00  7.24234168e-01
 -9.21287631e-01 -3.20574076e+00  7.24234168e-01 -9.21287631e-01 -3.20574076e+00
  7.24234168e-01 -9.21287631e-01 -3.20574076e+00  4.37264717e+00  2.39856152e-01
  1.94271676e+00  4.37264717e+00  2.39856152e-01  1.94271676e+00 -1.10828359e+00
 -1.69503722e+00 -3.72993068e+00 -1.10828359e+00 -1.69503722e+00 -3.72993068e+00
  7.29002108e+00  1.75330421e+00 -1.38327042e+00  7.29002108e+00  1.75330421e+00
 -1.38327042e+00  6.01508204e+00  1.56514134e+00 -5.91100925e+00  6.01508204e+00
  1.56514134e+00 -5.91100925e+00  1.79381349e+00 -1.73282516e-01 -7.06204531e+00
  1.79381349e+00 -1.73282516e-01 -7.06204531e+00 -1.82167522e+00  2.63700965e+00
  2.89167872e+00 -1.82167522e+00  2.63700965e+00  2.89167872e+00 -1.82167522e+00
  2.63700965e+00  2.89167872e+00 -1.82167522e+00  2.63700965e+00  2.89167872e+00
 -1.82167522e+00  2.63700965e+00  2.89167872e+00 -1.82167522e+00  2.63700965e+00
  2.89167872e+00 -1.82167522e+00  2.63700965e+00  2.89167872e+00 -1.82167522e+00
  2.63700965e+00  2.89167872e+00 -3.66618890e+00  3.32795082e-01  8.62029407e-02
 -3.66618890e+00  3.32795082e-01  8.62029407e-02 -7.91290072e-01  2.42344488e+00
  4.68278340e+00 -7.91290072e-01  2.42344488e+00  4.68278340e+00 -3.43926828e+00
  3.88350916e+00  3.23212451e+00 -3.43926828e+00  3.88350916e+00  3.23212451e+00
 -5.66774558e-01  3.59000399e+00  1.54827064e+00 -5.66774558e-01  3.59000399e+00
  1.54827064e+00 -6.93505940e+00 -1.30132002e-01  3.83415072e+00 -6.93505940e+00
 -1.30132002e-01  3.83415072e+00 -6.93505940e+00 -1.30132002e-01  3.83415072e+00
 -6.93505940e+00 -1.30132002e-01  3.83415072e+00 -6.93505940e+00 -1.30132002e-01
  3.83415072e+00 -6.93505940e+00 -1.30132002e-01  3.83415072e+00 -6.93505940e+00
 -1.30132002e-01  3.83415072e+00 -6.93505940e+00 -1.30132002e-01  3.83415072e+00
 -3.65036881e+00 -1.58410704e+00  5.26513512e+00 -3.65036881e+00 -1.58410704e+00
  5.26513512e+00 -7.85006045e+00 -5.65750913e-03  1.97900116e+00 -7.85006045e+00
 -5.65750913e-03  1.97900116e+00 -6.91990248e+00  1.78223766e+00  4.66840849e+00
 -6.91990248e+00  1.78223766e+00  4.66840849e+00 -8.11241864e+00 -1.34080183e+00
  5.03150593e+00 -8.11241864e+00 -1.34080183e+00  5.03150593e+00
Total Energy                               R     -4.448604245191779e+02
Alpha Orbital Energies                     R   N=         239
 -1.43239592e+01 -1.02193939e+01 -1.02052494e+01 -1.02010190e+01 -1.01957269e+01
 -1.01955316e+01 -1.01940626e+01 -1.01929405e+01 -1.01927812e+01 -1.01877213e+01
 -1.01759932e+01 -9.06028510e-01 -8.58229511e-01 -7.87204934e-01 -7.47105722e-01
 -7.40345983e-01 -6.87056175e-01 -6.61743897e-01 -6.09918019e-01 -5.98047811e-01
 -5.75670493e-01 -5.15021585e-01 -4.78941888e-01 -4.70608801e-01 -4.61437464e-01
 -4.52416437e-01 -4.34051083e-01 -4.25119512e-01 -4.20248640e-01 -3.99955790e-01
 -3.93251741e-01 -3.87910335e-01 -3.69682341e-01 -3.64984519e-01 -3.49006100e-01
 -3.43098782e-01 -3.37661382e-01 -3.31632322e-01 -2.54571607e-01 -2.46788581e-01
 -2.23183825e-01 -1.45324046e-02 -1.15520432e-02  2.60247916e-03  1.14848311e-02
  1.60632186e-02  2.54092090e-02  3.12885825e-02  3.59332769e-02  4.38111079e-02
  4.68275239e-02  5.46713483e-02  5.95183502e-02  6.29542533e-02  7.42149797e-02
  7.87096240e-02  8.40507618e-02  8.98771522e-02  9.36101352e-02  1.02541212e-01
  1.06809326e-01  1.11312062e-01  1.18336797e-01  1.25803748e-01  1.29668260e-01
  1.32595931e-01  1.36622923e-01  1.49611888e-01  1.56153390e-01  1.57811138e-01
  1.67136266e-01  1.76068657e-01  1.76532658e-01  1.84015014e-01  1.85160997e-01
  1.95130224e-01  1.96739565e-01  2.00354862e-01  2.04830820e-01  2.10212265e-01
  2.16134294e-01  2.19517964e-01  2.27340140e-01  2.30182388e-01  2.33023827e-01
  2.36971676e-01  2.40419056e-01  2.47984036e-01  2.54749625e-01  2.57020275e-01
  2.66244747e-01  2.68747074e-01  2.72349359e-01  2.78387675e-01  2.87820160e-01
  2.90227302e-01  2.93798254e-01  2.98749044e-01  3.06311696e-01  3.11893672e-01
  3.24286361e-01  3.32302234e-01  3.36052999e-01  3.51885262e-01  3.54329891e-01
  3.57201196e-01  3.68563265e-01  3.79601548e-01  3.88105793e-01  3.97748722e-01
  4.16427213e-01  4.61123421e-01  5.67993653e-01  6.02535257e-01  6.48833213e-01
  6.49776137e-01  6.61837915e-01  6.75721725e-01  6.83626193e-01  6.92457376e-01
  6.96875326e-01  7.14744877e-01  7.20637134e-01  7.29642487e-01  7.39787344e-01
  7.44336430e-01  7.49791414e-01  7.53818944e-01  7.71412284e-01  7.84011522e-01
  7.98466070e-01  8.03981632e-01  8.31749036e-01  8.35203580e-01  8.38269725e-01
  8.77279336e-01  8.94798735e-01  9.04852690e-01  9.18180024e-01  9.36712160e-01
  9.45886468e-01  9.55444942e-01  9.71192375e-01  9.77071939e-01  9.81948695e-01
  1.01178485e+00  1.01591853e+00  1.02785775e+00  1.03171916e+00  1.04291151e+00
  1.06826908e+00  1.07187608e+00  1.09344103e+00  1.09924932e+00  1.11552687e+00
  1.12016509e+00  1.14139977e+00  1.15022247e+00  1.16275741e+00  1.18739275e+00
  1.19251599e+00  1.21432187e+00  1.22118511e+00  1.26151462e+00  1.27680468e+00
  1.32220387e+00  1.34767045e+00  1.37426659e+00  1.41196211e+00  1.44495922e+00
  1.45661144e+00  1.47559245e+00  1.48358599e+00  1.49360261e+00  1.51223465e+00
  1.52595795e+00  1.53286221e+00  1.62942154e+00  1.64389621e+00  1.71326767e+00
  1.74731967e+00  1.78798980e+00  1.81900632e+00  1.84353815e+00  1.86838579e+00
  1.90814960e+00  1.91787426e+00  1.93606741e+00  1.95892508e+00  1.96470411e+00
  1.99247131e+00  2.00734882e+00  2.03238331e+00  2.06139579e+00  2.08403872e+00
  2.10215340e+00  2.10873946e+00  2.14588994e+00  2.15551414e+00  2.16708073e+00
  2.17560259e+00  2.18031637e+00  2.22041214e+00  2.24475246e+00  2.28908767e+00
  2.30935512e+00  2.31344534e+00  2.33592476e+00  2.35877335e+00  2.38719379e+00
  2.40671748e+00  2.45030432e+00  2.52911326e+00  2.53381329e+00  2.59323538e+00
  2.61487886e+00  2.62194397e+00  2.65540036e+00  2.73310632e+00  2.74994600e+00
  2.75465068e+00  2.77995671e+00  2.78671855e+00  2.79916655e+00  2.87649110e+00
  2.97013339e+00  3.06214398e+00  3.40193192e+00  4.08925299e+00  4.23957415e+00
  4.25431301e+00  4.27234889e+00  4.32064326e+00  4.33693111e+00  4.38952913e+00
  4.39793780e+00  4.50519610e+00  4.62720255e+00  4.71998192e+00
Alpha MO coefficients                      R   N=       57121
  4.27728169e-07 -1.73812518e-06  9.94243853e-06 -1.00815430e-05 -2.54446258e-06
 -1.18802334e-04 -5.63396988e-05  6.00612235e-05  1.14553848e-04  3.05240485e-06
 -2.77989431e-06  1.00068553e-05 -1.04890438e-06 -9.66385791e-06 -3.25449223e-06
  5.47850924e-03 -2.93955253e-03 -1.65723486e-03  1.39072671e-03  1.14074632e-05
  1.18030810e-04  1.68152913e-05  5.12707502e-06  9.21568562e-06 -4.06677433e-04
  8.81352810e-05 -1.34968238e-04 -2.50963665e-04 -5.60085775e-05  9.17909125e-06
 -1.68697821e-05  3.59947588e-06  4.46112556e-05 -1.79480091e-05 -8.34390067e-03
 -1.84231005e-03 -9.12533992e-04  1.12058293e-03 -3.07855733e-05 -6.65091427e-05
 -1.77574733e-04 -1.33621533e-04  1.31386491e-04  9.25453097e-04 -1.78495533e-05
 -5.92547189e-06  5.23913963e-04  3.76724455e-05 -2.44228798e-06  2.32085584e-05
  6.75367058e-05 -1.23139473e-04 -6.41142339e-05  3.25000504e-03  9.22312995e-04
 -1.66126911e-03 -1.30331067e-04  3.38451570e-05  1.56733811e-04  3.22652017e-05
 -6.27324114e-05  9.92678591e-01  3.46857385e-02  1.37004206e-04  1.03792276e-03
  5.50538527e-04  3.75726620e-03 -8.33457424e-05 -1.15567533e-03 -3.33421691e-04
 -8.41273303e-03 -8.34157437e-03 -8.28136382e-03  4.82936768e-06  7.52329039e-05
  4.50876488e-05 -4.14594751e-03 -5.59732169e-04  5.54316628e-04  7.23119165e-04
  4.52114085e-07  2.15513257e-06 -5.81196200e-06  1.81978568e-07  1.37226344e-06
  3.83321586e-05  4.70300571e-05 -1.80780471e-05 -5.23264578e-05 -1.58803240e-06
  2.90559973e-06  1.07571929e-06  3.66966439e-06  1.05741862e-06  2.79784048e-06
  1.63205416e-03 -1.24320775e-03 -4.93842505e-04  3.71176730e-04 -9.67711226e-07
 -3.04257382e-06  3.70257266e-06  7.91042922e-07 -1.65916427e-06 -2.26788915e-05
 -2.88569997e-06  1.68056111e-05 -1.32457643e-05 -8.39015477e-07 -3.25753670e-06
 -1.67381303e-06 -1.26426954e-06 -7.72103038e-07  1.00318226e-06 -2.02169838e-04
 -1.69543693e-04 -1.25583866e-04  9.15622496e-04 -6.60816398e-07 -2.34292180e-06
  3.07017336e-06  1.49358262e-06 -1.27740978e-06  2.32008098e-05 -2.43889007e-05
 -1.84797888e-05  3.76080484e-06 -6.75918865e-07 -9.13313404e-07 -1.66009009e-06
  4.09529021e-07  1.37243643e-06  6.88418526e-07  8.00765881e-04  4.85203691e-04
  1.08278764e-04  1.05382862e-03 -4.03009308e-07 -3.88575315e-07 -8.61210641e-07
 -2.16190851e-06 -3.07644599e-06 -5.16718823e-05 -1.05137713e-05  1.98132292e-05
 -1.93022474e-05  3.65139664e-07 -2.18447332e-06 -2.34982767e-06 -5.67639181e-07
 -7.87320473e-07  2.02308885e-06 -6.85500832e-03  1.97530274e-03  1.01595118e-03
 -1.34939540e-03  1.32255388e-06  4.19622894e-06 -5.07546863e-06  2.67717564e-07
 -1.11929013e-06  5.37050555e-05  1.08130203e-04  8.60708507e-07  3.29613258e-05
  3.60317995e-06  1.33625463e-06  3.16829601e-06 -2.81332121e-06  4.10162850e-06
 -2.93405173e-06  5.50540423e-03  2.22259448e-03  1.17921124e-03 -3.53312553e-03
  1.31443441e-05 -5.38309810e-05  1.81315579e-06  5.62439853e-05  1.26100763e-06
  2.54481801e-06  3.88596112e-06 -6.96735012e-06 -3.32878018e-07  3.06678351e-06
 -6.55779373e-06  2.65004247e-05  3.90386338e-05  4.82035435e-05 -2.27339763e-05
 -1.41374535e-04 -5.03885221e-05  1.20487630e-04  8.68613946e-05 -3.45303664e-05
 -6.03354408e-05 -2.01862500e-05 -2.52063271e-05  5.26343084e-06  1.66874992e-05
  7.67717655e-04 -2.96248371e-04 -4.54077760e-05 -1.70037748e-04 -1.01957538e-05
  1.29229454e-04  6.87037236e-06 -7.53917983e-05  4.98380540e-06 -1.04406431e-04
  2.33852541e-05 -2.42746029e-05 -1.61280880e-05  3.56544528e-05  2.69719847e-04