Generated by Psi4
     FORCE                           RHF                       TESTBAS
Number of atoms                            I               28
Charge                                     I                0
Multiplicity                               I                1
Number of electrons                        I               94
Number of alpha electrons                  I               47
Number of beta electrons                   I               47
Number of basis functions                  I              277
Number of independent functions            I              277
Atomic numbers                             I   N=          28
           7           6           6           6           6           6
           6           6           6           6           6           6
           1           1           1           1           1           1
           1           1           1           1           6           1
           1           1           1           1
Nuclear charges                            R   N=          28
  7.00000000e+00  6.00000000e+00  6.00000000e+00  6.00000000e+00  6.00000000e+00
  6.00000000e+00  6.00000000e+00  6.00000000e+00  6.00000000e+00  6.00000000e+00
  6.00000000e+00  6.00000000e+00  1.00000000e+00  1.00000000e+00  1.00000000e+00
  1.00000000e+00  1.00000000e+00  1.00000000e+00  1.00000000e+00  1.00000000e+00
  1.00000000e+00  1.00000000e+00  6.00000000e+00  1.00000000e+00  1.00000000e+00
  1.00000000e+00  1.00000000e+00  1.00000000e+00
Current cartesian coordinates              R   N=          84
 -4.62731844e+00 -2.38464245e+00  2.55268742e+00 -3.25244711e+00 -4.64649879e-01
  3.97776600e+00 -9.14599042e-01  4.35193747e-01  2.63489645e+00 -4.02488543e-01
 -5.37661998e-02  1.94406324e-01  4.29835398e+00  6.49323791e-01  3.43964503e-01
  2.00476246e+00  7.74099328e-01 -9.99403523e-01  6.56291707e+00  1.46105123e+00
 -7.37099859e-01  6.59803280e+00  2.40258636e+00 -3.20496401e+00 -4.88824005e+00
 -1.65503841e+00 -9.53702247e-02 -2.29631225e+00 -1.52689420e+00 -1.37270185e+00
  2.08038292e+00  1.70406467e+00 -3.48975046e+00  4.34398889e+00  2.51668927e+00
 -4.57584590e+00  8.30700740e+00  1.33274205e+00  3.41966899e-01  8.36163811e+00
  3.02568979e+00 -4.05403635e+00  4.30334418e+00 -1.34857467e-01  2.24185263e+00
  3.81428816e-01  1.57296230e+00  3.75663535e+00  4.34267542e+00  3.24639897e+00
 -6.49679105e+00  3.48982571e-01  1.83948909e+00 -4.58462638e+00 -1.57180146e+00
 -3.44842204e+00 -1.69083785e+00 -2.51691187e+00 -6.73400269e-01 -3.24946890e+00
 -2.72941594e+00 -1.26881032e+00  5.82096183e+00 -4.47781812e+00  1.19524973e+00
  4.39981930e+00 -7.03700282e+00 -2.98425295e+00  3.73084027e+00 -8.35357951e+00
 -1.35301297e+00  3.77180933e+00 -6.72389831e+00 -3.60304456e+00  5.68250977e+00
 -7.95242205e+00 -4.53167821e+00  2.70472354e+00 -5.85886923e+00  1.97539212e-01
 -2.79749327e-01 -6.07368736e+00 -3.06107892e+00 -1.04834344e+00
Integer atomic weights                     I   N=          28
          14          12          12          12          12          12
          12          12          12          12          12          12
           1           1           1           1           1           1
           1           1           1           1          12           1
           1           1           1           1
Real atomic weights                        R   N=          28
  1.40030740e+01  1.20000000e+01  1.20000000e+01  1.20000000e+01  1.20000000e+01
  1.20000000e+01  1.20000000e+01  1.20000000e+01  1.20000000e+01  1.20000000e+01
  1.20000000e+01  1.20000000e+01  1.00782503e+00  1.00782503e+00  1.00782503e+00
  1.00782503e+00  1.00782503e+00  1.00782503e+00  1.00782503e+00  1.00782503e+00
  1.00782503e+00  1.00782503e+00  1.20000000e+01  1.00782503e+00  1.00782503e+00
  1.00782503e+00  1.00782503e+00  1.00782503e+00
Number of primitive shells                 I              281
Number of contracted shells                I              134
Pure/Cartesian d shells                    I                1
Pure/Cartesian f shells                    I                1
Highest angular momentum                   I                2
Largest degree of contraction              I                6
Shell types                                I   N=         134
           0           0           1           0           1           2
           0           1           0           0           1           0
           1           2           0           1           0           0
           1           0           1           2           0           1
           0           0           1           0           1           2
           0           1           0           0           1           0
           1           2           0           1           0           0
           1           0           1           2           0           1
           0           0           1           0           1           2
           0           1           0           0           1           0
           1           2           0           1           0           0
           1           0           1           2           0           1
           0           0           1           0           1           2
           0           1           0           0           1           0
           1           2           0           1           0           0
           1           0           1           2           0           1
           0           0           0           0           0           0
           0           0           0           0           0           0
           0           0           0           0           0           0
           0           0           0           0           1           0
           1           2           0           1           0           0
           0           0           0           0           0           0
           0           0
Number of primitives per shell             I   N=         134
           6           3           3           1           1           1
           1           1           6           3           3           1
           1           1           1           1           6           3
           3           1           1           1           1           1
           6           3           3           1           1           1
           1           1           6           3           3           1
           1           1           1           1           6           3
           3           1           1           1           1           1
           6           3           3           1           1           1
           1           1           6           3           3           1
           1           1           1           1           6           3
           3           1           1           1           1           1
           6           3           3           1           1           1
           1           1           6           3           3           1
           1           1           1           1           6           3
           3           1           1           1           1           1
           3           1           3           1           3           1
           3           1           3           1           3           1
           3           1           3           1           3           1
           3           1           6           3           3           1
           1           1           1           1           3           1
           3           1           3           1           3           1
           3           1
Shell to atom map                          I   N=         134
           1           1           1           1           1           1
           1           1           2           2           2           2
           2           2           2           2           3           3
           3           3           3           3           3           3
           4           4           4           4           4           4
           4           4           5           5           5           5
           5           5           5           5           6           6
           6           6           6           6           6           6
           7           7           7           7           7           7
           7           7           8           8           8           8
           8           8           8           8           9           9
           9           9           9           9           9           9
          10          10          10          10          10          10
          10          10          11          11          11          11
          11          11          11          11          12          12
          12          12          12          12          12          12
          13          13          14          14          15          15
          16          16          17          17          18          18
          19          19          20          20          21          21
          22          22          23          23          23          23
          23          23          23          23          24          24
          25          25          26          26          27          27
          28          28
Primitive exponents                        R   N=         281
  4.17351100e+03  6.27457900e+02  1.42902100e+02  4.02343300e+01  1.28202100e+01
  4.39043700e+00  1.16263580e+01  2.71628000e+00  7.72218000e-01  1.16263580e+01
  2.71628000e+00  7.72218000e-01  2.12031300e-01  2.12031300e-01  8.00000000e-01
  6.39000000e-02  6.39000000e-02  3.04752490e+03  4.57369510e+02  1.03948690e+02
  2.92101550e+01  9.28666300e+00  3.16392700e+00  7.86827240e+00  1.88128850e+00
  5.44249300e-01  7.86827240e+00  1.88128850e+00  5.44249300e-01  1.68714400e-01
  1.68714400e-01  8.00000000e-01  4.38000000e-02  4.38000000e-02  3.04752490e+03
  4.57369510e+02  1.03948690e+02  2.92101550e+01  9.28666300e+00  3.16392700e+00
  7.86827240e+00  1.88128850e+00  5.44249300e-01  7.86827240e+00  1.88128850e+00
  5.44249300e-01  1.68714400e-01  1.68714400e-01  8.00000000e-01  4.38000000e-02
  4.38000000e-02  3.04752490e+03  4.57369510e+02  1.03948690e+02  2.92101550e+01
  9.28666300e+00  3.16392700e+00  7.86827240e+00  1.88128850e+00  5.44249300e-01
  7.86827240e+00  1.88128850e+00  5.44249300e-01  1.68714400e-01  1.68714400e-01
  8.00000000e-01  4.38000000e-02  4.38000000e-02  3.04752490e+03  4.57369510e+02
  1.03948690e+02  2.92101550e+01  9.28666300e+00  3.16392700e+00  7.86827240e+00
  1.88128850e+00  5.44249300e-01  7.86827240e+00  1.88128850e+00  5.44249300e-01
  1.68714400e-01  1.68714400e-01  8.00000000e-01  4.38000000e-02  4.38000000e-02
  3.04752490e+03  4.57369510e+02  1.03948690e+02  2.92101550e+01  9.28666300e+00
  3.16392700e+00  7.86827240e+00  1.88128850e+00  5.44249300e-01  7.86827240e+00
  1.88128850e+00  5.44249300e-01  1.68714400e-01  1.68714400e-01  8.00000000e-01
  4.38000000e-02  4.38000000e-02  3.04752490e+03  4.57369510e+02  1.03948690e+02
  2.92101550e+01  9.28666300e+00  3.16392700e+00  7.86827240e+00  1.88128850e+00
  5.44249300e-01  7.86827240e+00  1.88128850e+00  5.44249300e-01  1.68714400e-01
  1.68714400e-01  8.00000000e-01  4.38000000e-02  4.38000000e-02  3.04752490e+03
  4.57369510e+02  1.03948690e+02  2.92101550e+01  9.28666300e+00  3.16392700e+00
  7.86827240e+00  1.88128850e+00  5.44249300e-01  7.86827240e+00  1.88128850e+00
  5.44249300e-01  1.68714400e-01  1.68714400e-01  8.00000000e-01  4.38000000e-02
  4.38000000e-02  3.04752490e+03  4.57369510e+02  1.03948690e+02  2.92101550e+01
  9.28666300e+00  3.16392700e+00  7.86827240e+00  1.88128850e+00  5.44249300e-01
  7.86827240e+00  1.88128850e+00  5.44249300e-01  1.68714400e-01  1.68714400e-01
  8.00000000e-01  4.38000000e-02  4.38000000e-02  3.04752490e+03  4.57369510e+02
  1.03948690e+02  2.92101550e+01  9.28666300e+00  3.16392700e+00  7.86827240e+00
  1.88128850e+00  5.44249300e-01  7.86827240e+00  1.88128850e+00  5.44249300e-01
  1.68714400e-01  1.68714400e-01  8.00000000e-01  4.38000000e-02  4.38000000e-02
  3.04752490e+03  4.57369510e+02  1.03948690e+02  2.92101550e+01  9.28666300e+00
  3.16392700e+00  7.86827240e+00  1.88128850e+00  5.44249300e-01  7.86827240e+00
  1.88128850e+00  5.44249300e-01  1.68714400e-01  1.68714400e-01  8.00000000e-01
  4.38000000e-02  4.38000000e-02  3.04752490e+03  4.57369510e+02  1.03948690e+02
  2.92101550e+01  9.28666300e+00  3.16392700e+00  7.86827240e+00  1.88128850e+00
  5.44249300e-01  7.86827240e+00  1.88128850e+00  5.44249300e-01  1.68714400e-01
  1.68714400e-01  8.00000000e-01  4.38000000e-02  4.38000000e-02  1.87311370e+01
  2.82539370e+00  6.40121700e-01  1.61277800e-01  1.87311370e+01  2.82539370e+00
  6.40121700e-01  1.61277800e-01  1.87311370e+01  2.82539370e+00  6.40121700e-01
  1.61277800e-01  1.87311370e+01  2.82539370e+00  6.40121700e-01  1.61277800e-01
  1.87311370e+01  2.82539370e+00  6.40121700e-01  1.61277800e-01  1.87311370e+01
  2.82539370e+00  6.40121700e-01  1.61277800e-01  1.87311370e+01  2.82539370e+00
  6.40121700e-01  1.61277800e-01  1.87311370e+01  2.82539370e+00  6.40121700e-01
  1.61277800e-01  1.87311370e+01  2.82539370e+00  6.40121700e-01  1.61277800e-01
  1.87311370e+01  2.82539370e+00  6.40121700e-01  1.61277800e-01  3.04752490e+03
  4.57369510e+02  1.03948690e+02  2.92101550e+01  9.28666300e+00  3.16392700e+00
  7.86827240e+00  1.88128850e+00  5.44249300e-01  7.86827240e+00  1.88128850e+00
  5.44249300e-01  1.68714400e-01  1.68714400e-01  8.00000000e-01  4.38000000e-02
  4.38000000e-02  1.87311370e+01  2.82539370e+00  6.40121700e-01  1.61277800e-01
  1.87311370e+01  2.82539370e+00  6.40121700e-01  1.61277800e-01  1.87311370e+01
  2.82539370e+00  6.40121700e-01  1.61277800e-01  1.87311370e+01  2.82539370e+00
  6.40121700e-01  1.61277800e-01  1.87311370e+01  2.82539370e+00  6.40121700e-01
  1.61277800e-01
Contraction coefficients                   R   N=         281
  1.83479944e-03  1.39949958e-02  6.85869792e-02  2.32240930e-01  4.69069858e-01
  3.60454891e-01 -1.14961023e-01 -1.69118034e-01  1.14585223e+00  6.75800232e-02
  3.23907111e-01  7.40895255e-01  1.00000000e+00  1.00000000e+00  1.00000000e+00
  1.00000000e+00  1.00000000e+00  1.83470016e-03  1.40373012e-02  6.88426061e-02
  2.32184421e-01  4.67941342e-01  3.62312032e-01 -1.19332409e-01 -1.60854212e-01
  1.14345648e+00  6.89990956e-02  3.16423980e-01  7.44308252e-01  1.00000000e+00
  1.00000000e+00  1.00000000e+00  1.00000000e+00  1.00000000e+00  1.83470016e-03
  1.40373012e-02  6.88426061e-02  2.32184421e-01  4.67941342e-01  3.62312032e-01
 -1.19332409e-01 -1.60854212e-01  1.14345648e+00  6.89990956e-02  3.16423980e-01
  7.44308252e-01  1.00000000e+00  1.00000000e+00  1.00000000e+00  1.00000000e+00
  1.00000000e+00  1.83470016e-03  1.40373012e-02  6.88426061e-02  2.32184421e-01
  4.67941342e-01  3.62312032e-01 -1.19332409e-01 -1.60854212e-01  1.14345648e+00
  6.89990956e-02  3.16423980e-01  7.44308252e-01  1.00000000e+00  1.00000000e+00
  1.00000000e+00  1.00000000e+00  1.00000000e+00  1.83470016e-03  1.40373012e-02
  6.88426061e-02  2.32184421e-01  4.67941342e-01  3.62312032e-01 -1.19332409e-01
 -1.60854212e-01  1.14345648e+00  6.89990956e-02  3.16423980e-01  7.44308252e-01
  1.00000000e+00  1.00000000e+00  1.00000000e+00  1.00000000e+00  1.00000000e+00
  1.83470016e-03  1.40373012e-02  6.88426061e-02  2.32184421e-01  4.67941342e-01
  3.62312032e-01 -1.19332409e-01 -1.60854212e-01  1.14345648e+00  6.89990956e-02
  3.16423980e-01  7.44308252e-01  1.00000000e+00  1.00000000e+00  1.00000000e+00
  1.00000000e+00  1.00000000e+00  1.83470016e-03  1.40373012e-02  6.88426061e-02
  2.32184421e-01  4.67941342e-01  3.62312032e-01 -1.19332409e-01 -1.60854212e-01
  1.14345648e+00  6.89990956e-02  3.16423980e-01  7.44308252e-01  1.00000000e+00
  1.00000000e+00  1.00000000e+00  1.00000000e+00  1.00000000e+00  1.83470016e-03
  1.40373012e-02  6.88426061e-02  2.32184421e-01  4.67941342e-01  3.62312032e-01
 -1.19332409e-01 -1.60854212e-01  1.14345648e+00  6.89990956e-02  3.16423980e-01
  7.44308252e-01  1.00000000e+00  1.00000000e+00  1.00000000e+00  1.00000000e+00
  1.00000000e+00  1.83470016e-03  1.40373012e-02  6.88426061e-02  2.32184421e-01
  4.67941342e-01  3.62312032e-01 -1.19332409e-01 -1.60854212e-01  1.14345648e+00
  6.89990956e-02  3.16423980e-01  7.44308252e-01  1.00000000e+00  1.00000000e+00
  1.00000000e+00  1.00000000e+00  1.00000000e+00  1.83470016e-03  1.40373012e-02
  6.88426061e-02  2.32184421e-01  4.67941342e-01  3.62312032e-01 -1.19332409e-01
 -1.60854212e-01  1.14345648e+00  6.89990956e-02  3.16423980e-01  7.44308252e-01
  1.00000000e+00  1.00000000e+00  1.00000000e+00  1.00000000e+00  1.00000000e+00
  1.83470016e-03  1.40373012e-02  6.88426061e-02  2.32184421e-01  4.67941342e-01
  3.62312032e-01 -1.19332409e-01 -1.60854212e-01  1.14345648e+00  6.89990956e-02
  3.16423980e-01  7.44308252e-01  1.00000000e+00  1.00000000e+00  1.00000000e+00
  1.00000000e+00  1.00000000e+00  1.83470016e-03  1.40373012e-02  6.88426061e-02
  2.32184421e-01  4.67941342e-01  3.62312032e-01 -1.19332409e-01 -1.60854212e-01
  1.14345648e+00  6.89990956e-02  3.16423980e-01  7.44308252e-01  1.00000000e+00
  1.00000000e+00  1.00000000e+00  1.00000000e+00  1.00000000e+00  3.34945995e-02
  2.34726947e-01  8.13757318e-01  1.00000000e+00  3.34945995e-02  2.34726947e-01
  8.13757318e-01  1.00000000e+00  3.34945995e-02  2.34726947e-01  8.13757318e-01
  1.00000000e+00  3.34945995e-02  2.34726947e-01  8.13757318e-01  1.00000000e+00
  3.34945995e-02  2.34726947e-01  8.13757318e-01  1.00000000e+00  3.34945995e-02
  2.34726947e-01  8.13757318e-01  1.00000000e+00  3.34945995e-02  2.34726947e-01
  8.13757318e-01  1.00000000e+00  3.34945995e-02  2.34726947e-01  8.13757318e-01
  1.00000000e+00  3.34945995e-02  2.34726947e-01  8.13757318e-01  1.00000000e+00
  3.34945995e-02  2.34726947e-01  8.13757318e-01  1.00000000e+00  1.83470016e-03
  1.40373012e-02  6.88426061e-02  2.32184421e-01  4.67941342e-01  3.62312032e-01
 -1.19332409e-01 -1.60854212e-01  1.14345648e+00  6.89990956e-02  3.16423980e-01
  7.44308252e-01  1.00000000e+00  1.00000000e+00  1.00000000e+00  1.00000000e+00
  1.00000000e+00  3.34945995e-02  2.34726947e-01  8.13757318e-01  1.00000000e+00
  3.34945995e-02  2.34726947e-01  8.13757318e-01  1.00000000e+00  3.34945995e-02
  2.34726947e-01  8.13757318e-01  1.00000000e+00  3.34945995e-02  2.34726947e-01
  8.13757318e-01  1.00000000e+00  3.34945995e-02  2.34726947e-01  8.13757318e-01
  1.00000000e+00
Coordinates of each shell                  R   N=         402
 -4.62731844e+00 -2.38464245e+00  2.55268742e+00 -4.62731844e+00 -2.38464245e+00
  2.55268742e+00 -4.62731844e+00 -2.38464245e+00  2.55268742e+00 -4.62731844e+00
 -2.38464245e+00  2.55268742e+00 -4.62731844e+00 -2.38464245e+00  2.55268742e+00
 -4.62731844e+00 -2.38464245e+00  2.55268742e+00 -4.62731844e+00 -2.38464245e+00
  2.55268742e+00 -4.62731844e+00 -2.38464245e+00  2.55268742e+00 -3.25244711e+00
 -4.64649879e-01  3.97776600e+00 -3.25244711e+00 -4.64649879e-01  3.97776600e+00
 -3.25244711e+00 -4.64649879e-01  3.97776600e+00 -3.25244711e+00 -4.64649879e-01
  3.97776600e+00 -3.25244711e+00 -4.64649879e-01  3.97776600e+00 -3.25244711e+00
 -4.64649879e-01  3.97776600e+00 -3.25244711e+00 -4.64649879e-01  3.97776600e+00
 -3.25244711e+00 -4.64649879e-01  3.97776600e+00 -9.14599042e-01  4.35193747e-01
  2.63489645e+00 -9.14599042e-01  4.35193747e-01  2.63489645e+00 -9.14599042e-01
  4.35193747e-01  2.63489645e+00 -9.14599042e-01  4.35193747e-01  2.63489645e+00
 -9.14599042e-01  4.35193747e-01  2.63489645e+00 -9.14599042e-01  4.35193747e-01
  2.63489645e+00 -9.14599042e-01  4.35193747e-01  2.63489645e+00 -9.14599042e-01
  4.35193747e-01  2.63489645e+00 -4.02488543e-01 -5.37661998e-02  1.94406324e-01
 -4.02488543e-01 -5.37661998e-02  1.94406324e-01 -4.02488543e-01 -5.37661998e-02
  1.94406324e-01 -4.02488543e-01 -5.37661998e-02  1.94406324e-01 -4.02488543e-01
 -5.37661998e-02  1.94406324e-01 -4.02488543e-01 -5.37661998e-02  1.94406324e-01
 -4.02488543e-01 -5.37661998e-02  1.94406324e-01 -4.02488543e-01 -5.37661998e-02
  1.94406324e-01  4.29835398e+00  6.49323791e-01  3.43964503e-01  4.29835398e+00
  6.49323791e-01  3.43964503e-01  4.29835398e+00  6.49323791e-01  3.43964503e-01
  4.29835398e+00  6.49323791e-01  3.43964503e-01  4.29835398e+00  6.49323791e-01
  3.43964503e-01  4.29835398e+00  6.49323791e-01  3.43964503e-01  4.29835398e+00
  6.49323791e-01  3.43964503e-01  4.29835398e+00  6.49323791e-01  3.43964503e-01
  2.00476246e+00  7.74099328e-01 -9.99403523e-01  2.00476246e+00  7.74099328e-01
 -9.99403523e-01  2.00476246e+00  7.74099328e-01 -9.99403523e-01  2.00476246e+00
  7.74099328e-01 -9.99403523e-01  2.00476246e+00  7.74099328e-01 -9.99403523e-01
  2.00476246e+00  7.74099328e-01 -9.99403523e-01  2.00476246e+00  7.74099328e-01
 -9.99403523e-01  2.00476246e+00  7.74099328e-01 -9.99403523e-01  6.56291707e+00
  1.46105123e+00 -7.37099859e-01  6.56291707e+00  1.46105123e+00 -7.37099859e-01
  6.56291707e+00  1.46105123e+00 -7.37099859e-01  6.56291707e+00  1.46105123e+00
 -7.37099859e-01  6.56291707e+00  1.46105123e+00 -7.37099859e-01  6.56291707e+00
  1.46105123e+00 -7.37099859e-01  6.56291707e+00  1.46105123e+00 -7.37099859e-01
  6.56291707e+00  1.46105123e+00 -7.37099859e-01  6.59803280e+00  2.40258636e+00
 -3.20496401e+00  6.59803280e+00  2.40258636e+00 -3.20496401e+00  6.59803280e+00
  2.40258636e+00 -3.20496401e+00  6.59803280e+00  2.40258636e+00 -3.20496401e+00
  6.59803280e+00  2.40258636e+00 -3.20496401e+00  6.59803280e+00  2.40258636e+00
 -3.20496401e+00  6.59803280e+00  2.40258636e+00 -3.20496401e+00  6.59803280e+00
  2.40258636e+00 -3.20496401e+00 -4.88824005e+00 -1.65503841e+00 -9.53702247e-02
 -4.88824005e+00 -1.65503841e+00 -9.53702247e-02 -4.88824005e+00 -1.65503841e+00
 -9.53702247e-02 -4.88824005e+00 -1.65503841e+00 -9.53702247e-02 -4.88824005e+00
 -1.65503841e+00 -9.53702247e-02 -4.88824005e+00 -1.65503841e+00 -9.53702247e-02
 -4.88824005e+00 -1.65503841e+00 -9.53702247e-02 -4.88824005e+00 -1.65503841e+00
 -9.53702247e-02 -2.29631225e+00 -1.52689420e+00 -1.37270185e+00 -2.29631225e+00
 -1.52689420e+00 -1.37270185e+00 -2.29631225e+00 -1.52689420e+00 -1.37270185e+00
 -2.29631225e+00 -1.52689420e+00 -1.37270185e+00 -2.29631225e+00 -1.52689420e+00
 -1.37270185e+00 -2.29631225e+00 -1.52689420e+00 -1.37270185e+00 -2.29631225e+00
 -1.52689420e+00 -1.37270185e+00 -2.29631225e+00 -1.52689420e+00 -1.37270185e+00
  2.08038292e+00  1.70406467e+00 -3.48975046e+00  2.08038292e+00  1.70406467e+00
 -3.48975046e+00  2.08038292e+00  1.70406467e+00 -3.48975046e+00  2.08038292e+00
  1.70406467e+00 -3.48975046e+00  2.08038292e+00  1.70406467e+00 -3.48975046e+00
  2.08038292e+00  1.70406467e+00 -3.48975046e+00  2.08038292e+00  1.70406467e+00
 -3.48975046e+00  2.08038292e+00  1.70406467e+00 -3.48975046e+00  4.34398889e+00
  2.51668927e+00 -4.57584590e+00  4.34398889e+00  2.51668927e+00 -4.57584590e+00
  4.34398889e+00  2.51668927e+00 -4.57584590e+00  4.34398889e+00  2.51668927e+00
 -4.57584590e+00  4.34398889e+00  2.51668927e+00 -4.57584590e+00  4.34398889e+00
  2.51668927e+00 -4.57584590e+00  4.34398889e+00  2.51668927e+00 -4.57584590e+00
  4.34398889e+00  2.51668927e+00 -4.57584590e+00  8.30700740e+00  1.33274205e+00
  3.41966899e-01  8.30700740e+00  1.33274205e+00  3.41966899e-01  8.36163811e+00
  3.02568979e+00 -4.05403635e+00  8.36163811e+00  3.02568979e+00 -4.05403635e+00
  4.30334418e+00 -1.34857467e-01  2.24185263e+00  4.30334418e+00 -1.34857467e-01
  2.24185263e+00  3.81428816e-01  1.57296230e+00  3.75663535e+00  3.81428816e-01
  1.57296230e+00  3.75663535e+00  4.34267542e+00  3.24639897e+00 -6.49679105e+00
  4.34267542e+00  3.24639897e+00 -6.49679105e+00  3.48982571e-01  1.83948909e+00
 -4.58462638e+00  3.48982571e-01  1.83948909e+00 -4.58462638e+00 -1.57180146e+00
 -3.44842204e+00 -1.69083785e+00 -1.57180146e+00 -3.44842204e+00 -1.69083785e+00
 -2.51691187e+00 -6.73400269e-01 -3.24946890e+00 -2.51691187e+00 -6.73400269e-01
 -3.24946890e+00 -2.72941594e+00 -1.26881032e+00  5.82096183e+00 -2.72941594e+00
 -1.26881032e+00  5.82096183e+00 -4.47781812e+00  1.19524973e+00  4.39981930e+00
 -4.47781812e+00  1.19524973e+00  4.39981930e+00 -7.03700282e+00 -2.98425295e+00
  3.73084027e+00 -7.03700282e+00 -2.98425295e+00  3.73084027e+00 -7.03700282e+00
 -2.98425295e+00  3.73084027e+00 -7.03700282e+00 -2.98425295e+00  3.73084027e+00
 -7.03700282e+00 -2.98425295e+00  3.73084027e+00 -7.03700282e+00 -2.98425295e+00
  3.73084027e+00 -7.03700282e+00 -2.98425295e+00  3.73084027e+00 -7.03700282e+00
 -2.98425295e+00  3.73084027e+00 -8.35357951e+00 -1.35301297e+00  3.77180933e+00
 -8.35357951e+00 -1.35301297e+00  3.77180933e+00 -6.72389831e+00 -3.60304456e+00
  5.68250977e+00 -6.72389831e+00 -3.60304456e+00  5.68250977e+00 -7.95242205e+00
 -4.53167821e+00  2.70472354e+00 -7.95242205e+00 -4.53167821e+00  2.70472354e+00
 -5.85886923e+00  1.97539212e-01 -2.79749327e-01 -5.85886923e+00  1.97539212e-01
 -2.79749327e-01 -6.07368736e+00 -3.06107892e+00 -1.04834344e+00 -6.07368736e+00
 -3.06107892e+00 -1.04834344e+00
Total Energy                               R     -5.210582859413820e+02
Alpha Orbital Energies                     R   N=         277
 -1.43332967e+01 -1.02169018e+01 -1.02128131e+01 -1.02075198e+01 -1.02042044e+01
 -1.01991773e+01 -1.01964768e+01 -1.01960184e+01 -1.01952190e+01 -1.01950976e+01
 -1.01937113e+01 -1.01911731e+01 -1.01890356e+01 -9.33447178e-01 -8.61955428e-01
 -8.11947966e-01 -7.59093305e-01 -7.48754763e-01 -7.47177020e-01 -6.92264246e-01
 -6.43508834e-01 -6.23666264e-01 -6.02589308e-01 -5.89902550e-01 -5.30223653e-01
 -5.13337798e-01 -4.86774265e-01 -4.74051304e-01 -4.69199710e-01 -4.52958052e-01
 -4.47089024e-01 -4.27841538e-01 -4.23525478e-01 -4.21416200e-01 -4.05525212e-01
 -3.98820602e-01 -3.88311097e-01 -3.68937163e-01 -3.63761814e-01 -3.60586321e-01
 -3.51472830e-01 -3.37346968e-01 -3.23371766e-01 -2.76365793e-01 -2.55482834e-01
 -2.27787806e-01 -2.18421333e-01 -2.91547738e-02 -1.34432423e-02  3.00403011e-04
  9.48042548e-03  1.73911561e-02  2.29314775e-02  2.58125585e-02  3.34354146e-02
  3.51036880e-02  4.34813382e-02  5.02747534e-02  5.18309684e-02  5.41470317e-02
  5.73406324e-02  6.38513957e-02  7.33046771e-02  8.10768656e-02  8.29010064e-02
  8.39278987e-02  9.30714835e-02  1.02324680e-01  1.05262063e-01  1.12624611e-01
  1.15242710e-01  1.20439010e-01  1.24462468e-01  1.33862767e-01  1.34648228e-01
  1.41431095e-01  1.43789599e-01  1.48692601e-01  1.57695740e-01  1.62055344e-01
  1.68184341e-01  1.72024733e-01  1.79555426e-01  1.86566263e-01  1.88729949e-01
  1.92161094e-01  1.99120510e-01  2.01349888e-01  2.06489044e-01  2.12191861e-01
  2.14135778e-01  2.20469400e-01  2.21849019e-01  2.25830551e-01  2.32750492e-01
  2.36581918e-01  2.40552635e-01  2.43733869e-01  2.48729961e-01  2.49420625e-01
  2.56757512e-01  2.59119040e-01  2.60409890e-01  2.67585163e-01  2.71007452e-01
  2.74256935e-01  2.79697586e-01  2.81985653e-01  2.89747817e-01  2.92466179e-01
  2.97118232e-01  2.99932818e-01  3.01518809e-01  3.15706911e-01  3.16425115e-01
  3.21310617e-01  3.26139139e-01  3.38601259e-01  3.41661434e-01  3.49614364e-01
  3.59106747e-01  3.67437339e-01  3.75823819e-01  3.85614058e-01  3.99280902e-01
  4.02713402e-01  4.29861623e-01  4.41334626e-01  4.84312955e-01  4.96022650e-01
  5.76642215e-01  6.09179259e-01  6.57944150e-01  6.64953763e-01  6.68683892e-01
  6.80028291e-01  6.85483171e-01  6.93682166e-01  6.99730411e-01  7.09561291e-01
  7.14679944e-01  7.19559333e-01  7.27964949e-01  7.30736689e-01  7.39470841e-01
  7.42365448e-01  7.54275847e-01  7.59165966e-01  7.78024826e-01  7.83617819e-01
  7.94543180e-01  8.00091157e-01  8.23774622e-01  8.46941988e-01  8.52476507e-01
  8.63846901e-01  8.71949147e-01  8.80546232e-01  8.96983176e-01  9.14895133e-01
  9.35271038e-01  9.38543179e-01  9.43312360e-01  9.52681000e-01  9.67369827e-01
  9.77203976e-01  9.87286094e-01  1.00108101e+00  1.01048764e+00  1.02091312e+00
  1.03604869e+00  1.03672570e+00  1.05345904e+00  1.06294197e+00  1.08108577e+00
  1.09989934e+00  1.11149464e+00  1.11518279e+00  1.12865823e+00  1.14301007e+00
  1.15725938e+00  1.17259553e+00  1.18370664e+00  1.19768132e+00  1.20124952e+00
  1.21599713e+00  1.23153109e+00  1.24240587e+00  1.29530958e+00  1.30560721e+00
  1.30928605e+00  1.32937795e+00  1.38700824e+00  1.43398558e+00  1.44082003e+00
  1.45360245e+00  1.46866178e+00  1.48088374e+00  1.49127478e+00  1.49443961e+00
  1.50822824e+00  1.51592073e+00  1.56517970e+00  1.59259187e+00  1.60228573e+00
  1.66637636e+00  1.75354862e+00  1.77496665e+00  1.79152184e+00  1.84046020e+00
  1.85609855e+00  1.86943169e+00  1.88660309e+00  1.90136460e+00  1.92139781e+00
  1.93862998e+00  1.95467580e+00  1.96526739e+00  1.97040166e+00  2.00236688e+00
  2.00516851e+00  2.03282595e+00  2.04961142e+00  2.07662256e+00  2.08635162e+00
  2.09622287e+00  2.10303901e+00  2.13951308e+00  2.14828855e+00  2.17183811e+00
  2.17881567e+00  2.21496328e+00  2.22182708e+00  2.24696034e+00  2.25289844e+00
  2.27302245e+00  2.29603319e+00  2.31050360e+00  2.31306432e+00  2.32007953e+00
  2.37728453e+00  2.41249066e+00  2.45705637e+00  2.47347316e+00  2.49628820e+00
  2.54843751e+00  2.55276856e+00  2.59947989e+00  2.62595539e+00  2.63101934e+00
  2.63844561e+00  2.67618156e+00  2.70526554e+00  2.74797072e+00  2.76242784e+00
  2.77604797e+00  2.79470270e+00  2.84690396e+00  2.88513413e+00  2.92189864e+00
  2.94799096e+00  3.08174933e+00  3.16463719e+00  3.41151421e+00  4.20220027e+00
  4.25117919e+00  4.25846975e+00  4.29467279e+00  4.31429168e+00  4.34768682e+00
  4.37897556e+00  4.40176161e+00  4.41781279e+00  4.50679647e+00  4.54308156e+00
  4.62526328e+00  4.74274306e+00
Alpha MO coefficients                      R   N=       76729
  9.92705333e-01  3.47929894e-02 -6.79040585e-04  9.90954043e-04  1.28167978e-05
  2.96226950e-03  8.99088741e-04 -1.29751259e-03 -3.18506182e-05 -8.32571282e-03