Generated by Psi4
     FORCE                           RHF                       TESTBAS
Number of atoms                            I               30
Charge                                     I                0
Multiplicity                               I                1
Number of electrons                        I              112
Number of alpha electrons                  I               56
Number of beta electrons                   I               56
Number of basis functions                  I              315
Number of independent functions            I              315
Atomic numbers                             I   N=          30
           6           6           6           1           1           7
           6           6           6           6           6           8
           6           1           1           1           1           1
           1           6           8           1           1           1
           1           8           6           1           1           1
Nuclear charges                            R   N=          30
  6.00000000e+00  6.00000000e+00  6.00000000e+00  1.00000000e+00  1.00000000e+00
  7.00000000e+00  6.00000000e+00  6.00000000e+00  6.00000000e+00  6.00000000e+00
  6.00000000e+00  8.00000000e+00  6.00000000e+00  1.00000000e+00  1.00000000e+00
  1.00000000e+00  1.00000000e+00  1.00000000e+00  1.00000000e+00  6.00000000e+00
  8.00000000e+00  1.00000000e+00  1.00000000e+00  1.00000000e+00  1.00000000e+00
  8.00000000e+00  6.00000000e+00  1.00000000e+00  1.00000000e+00  1.00000000e+00
Current cartesian coordinates              R   N=          90
 -4.43345733e-01 -1.43769802e+00  1.50431915e+00 -2.05872932e+00 -3.08710556e+00
  3.20044819e+00 -4.92150512e+00 -2.41278027e+00  3.23950316e+00 -1.34255633e+00
 -2.99990255e+00  5.14808232e+00 -1.88545243e+00 -5.06784449e+00  2.59760381e+00
 -6.45868869e+00 -4.24861150e+00  4.64831742e+00  1.12028504e+00  4.42938261e-01
  2.54850636e+00  2.50322428e+00  1.90741286e+00  8.75091540e-01  2.39878358e+00
  1.58538770e+00 -1.71848439e+00  8.76258844e-01 -2.65478969e-01 -2.80129467e+00
 -5.44467107e-01 -1.77434963e+00 -1.13001607e+00  4.15606968e+00  3.83798488e+00
  1.44099886e+00 -5.41928164e+00  2.26775526e-01  4.30906287e+00 -4.78694667e+00
  3.50259407e-01  6.28463080e+00 -7.44459921e+00  6.45437180e-01  4.25915202e+00
 -4.40951965e+00  1.67667733e+00  3.23387426e+00 -5.60820939e+00 -2.45800162e+00
  1.28026048e+00 -5.97445660e+00 -4.24551705e+00  6.51453817e+00 -6.16980684e+00
 -6.03907536e+00  3.99980314e+00  5.10748980e+00  4.74571237e+00 -9.34915522e-01
  3.97075361e+00  3.28190773e+00 -2.91352382e+00  7.16233556e+00  4.49525436e+00
 -9.88624936e-01  4.58391869e+00  6.73609064e+00 -1.16449026e+00  1.24723318e+00
  7.37625626e-01  4.57388115e+00 -1.74548624e+00 -3.25404167e+00 -1.88608591e+00
  9.00042966e-01 -4.64144427e-01 -5.37003321e+00 -6.41410874e-01 -2.34438260e+00
 -6.51419120e+00 -2.64822774e+00 -2.03509982e+00 -6.08905863e+00 -8.62848336e-02
 -4.24812315e+00 -5.90437956e+00 -3.31655275e-01 -2.15565129e+00 -8.54432792e+00
Integer atomic weights                     I   N=          30
          12          12          12           1           1          14
          12          12          12          12          12          15
          12           1           1           1           1           1
           1          12          15           1           1           1
           1          15          12           1           1           1
Real atomic weights                        R   N=          30
  1.20000000e+01  1.20000000e+01  1.20000000e+01  1.00782503e+00  1.00782503e+00
  1.40030740e+01  1.20000000e+01  1.20000000e+01  1.20000000e+01  1.20000000e+01
  1.20000000e+01  1.59949146e+01  1.20000000e+01  1.00782503e+00  1.00782503e+00
  1.00782503e+00  1.00782503e+00  1.00782503e+00  1.00782503e+00  1.20000000e+01
  1.59949146e+01  1.00782503e+00  1.00782503e+00  1.00782503e+00  1.00782503e+00
  1.59949146e+01  1.20000000e+01  1.00782503e+00  1.00782503e+00  1.00782503e+00
Number of primitive shells                 I              315
Number of contracted shells                I              150
Pure/Cartesian d shells                    I                1
Pure/Cartesian f shells                    I                1
Highest angular momentum                   I                2
Largest degree of contraction              I                6
Shell types                                I   N=         150
           0           0           1           0           1           2
           0           1           0           0           1           0
           1           2           0           1           0           0
           1           0           1           2           0           1
           0           0           0           0           0           0
           1           0           1           2           0           1
           0           0           1           0           1           2
           0           1           0           0           1           0
           1           2           0           1           0           0
           1           0           1           2           0           1
           0           0           1           0           1           2
           0           1           0           0           1           0
           1           2           0           1           0           0
           1           0           1           2           0           1
           0           0           1           0           1           2
           0           1           0           0           0           0
           0           0           0           0           0           0
           0           0           0           0           1           0
           1           2           0           1           0           0
           1           0           1           2           0           1
           0           0           0           0           0           0
           0           0           0           0           1           0
           1           2           0           1           0           0
           1           0           1           2           0           1
           0           0           0           0           0           0
Number of primitives per shell             I   N=         150
           6           3           3           1           1           1
           1           1           6           3           3           1
           1           1           1           1           6           3
           3           1           1           1           1           1
           3           1           3           1           6           3
           3           1           1           1           1           1
           6           3           3           1           1           1
           1           1           6           3           3           1
           1           1           1           1           6           3
           3           1           1           1           1           1
           6           3           3           1           1           1
           1           1           6           3           3           1
           1           1           1           1           6           3
           3           1           1           1           1           1
           6           3           3           1           1           1
           1           1           3           1           3           1
           3           1           3           1           3           1
           3           1           6           3           3           1
           1           1           1           1           6           3
           3           1           1           1           1           1
           3           1           3           1           3           1
           3           1           6           3           3           1
           1           1           1           1           6           3
           3           1           1           1           1           1
           3           1           3           1           3           1
Shell to atom map                          I   N=         150
           1           1           1           1           1           1
           1           1           2           2           2           2
           2           2           2           2           3           3
           3           3           3           3           3           3
           4           4           5           5           6           6
           6           6           6           6           6           6
           7           7           7           7           7           7
           7           7           8           8           8           8
           8           8           8           8           9           9
           9           9           9           9           9           9
          10          10          10          10          10          10
          10          10          11          11          11          11
          11          11          11          11          12          12
          12          12          12          12          12          12
          13          13          13          13          13          13
          13          13          14          14          15          15
          16          16          17          17          18          18
          19          19          20          20          20          20
          20          20          20          20          21          21
          21          21          21          21          21          21
          22          22          23          23          24          24
          25          25          26          26          26          26
          26          26          26          26          27          27
          27          27          27          27          27          27
          28          28          29          29          30          30
Primitive exponents                        R   N=         315
  3.04752490e+03  4.57369510e+02  1.03948690e+02  2.92101550e+01  9.28666300e+00
  3.16392700e+00  7.86827240e+00  1.88128850e+00  5.44249300e-01  7.86827240e+00
  1.88128850e+00  5.44249300e-01  1.68714400e-01  1.68714400e-01  8.00000000e-01
  4.38000000e-02  4.38000000e-02  3.04752490e+03  4.57369510e+02  1.03948690e+02
  2.92101550e+01  9.28666300e+00  3.16392700e+00  7.86827240e+00  1.88128850e+00
  5.44249300e-01  7.86827240e+00  1.88128850e+00  5.44249300e-01  1.68714400e-01
  1.68714400e-01  8.00000000e-01  4.38000000e-02  4.38000000e-02  3.04752490e+03
  4.57369510e+02  1.03948690e+02  2.92101550e+01  9.28666300e+00  3.16392700e+00
  7.86827240e+00  1.88128850e+00  5.44249300e-01  7.86827240e+00  1.88128850e+00
  5.44249300e-01  1.68714400e-01  1.68714400e-01  8.00000000e-01  4.38000000e-02
  4.38000000e-02  1.87311370e+01  2.82539370e+00  6.40121700e-01  1.61277800e-01
  1.87311370e+01  2.82539370e+00  6.40121700e-01  1.61277800e-01  4.17351100e+03
  6.27457900e+02  1.42902100e+02  4.02343300e+01  1.28202100e+01  4.39043700e+00
  1.16263580e+01  2.71628000e+00  7.72218000e-01  1.16263580e+01  2.71628000e+00
  7.72218000e-01  2.12031300e-01  2.12031300e-01  8.00000000e-01  6.39000000e-02
  6.39000000e-02  3.04752490e+03  4.57369510e+02  1.03948690e+02  2.92101550e+01
  9.28666300e+00  3.16392700e+00  7.86827240e+00  1.88128850e+00  5.44249300e-01
  7.86827240e+00  1.88128850e+00  5.44249300e-01  1.68714400e-01  1.68714400e-01
  8.00000000e-01  4.38000000e-02  4.38000000e-02  3.04752490e+03  4.57369510e+02
  1.03948690e+02  2.92101550e+01  9.28666300e+00  3.16392700e+00  7.86827240e+00
  1.88128850e+00  5.44249300e-01  7.86827240e+00  1.88128850e+00  5.44249300e-01
  1.68714400e-01  1.68714400e-01  8.00000000e-01  4.38000000e-02  4.38000000e-02
  3.04752490e+03  4.57369510e+02  1.03948690e+02  2.92101550e+01  9.28666300e+00
  3.16392700e+00  7.86827240e+00  1.88128850e+00  5.44249300e-01  7.86827240e+00
  1.88128850e+00  5.44249300e-01  1.68714400e-01  1.68714400e-01  8.00000000e-01
  4.38000000e-02  4.38000000e-02  3.04752490e+03  4.57369510e+02  1.03948690e+02
  2.92101550e+01  9.28666300e+00  3.16392700e+00  7.86827240e+00  1.88128850e+00
  5.44249300e-01  7.86827240e+00  1.88128850e+00  5.44249300e-01  1.68714400e-01
  1.68714400e-01  8.00000000e-01  4.38000000e-02  4.38000000e-02  3.04752490e+03
  4.57369510e+02  1.03948690e+02  2.92101550e+01  9.28666300e+00  3.16392700e+00
  7.86827240e+00  1.88128850e+00  5.44249300e-01  7.86827240e+00  1.88128850e+00
  5.44249300e-01  1.68714400e-01  1.68714400e-01  8.00000000e-01  4.38000000e-02
  4.38000000e-02  5.48467170e+03  8.25234950e+02  1.88046960e+02  5.29645000e+01
  1.68975700e+01  5.79963530e+00  1.55396160e+01  3.59993360e+00  1.01376180e+00
  1.55396160e+01  3.59993360e+00  1.01376180e+00  2.70005800e-01  2.70005800e-01
  8.00000000e-01  8.45000000e-02  8.45000000e-02  3.04752490e+03  4.57369510e+02
  1.03948690e+02  2.92101550e+01  9.28666300e+00  3.16392700e+00  7.86827240e+00
  1.88128850e+00  5.44249300e-01  7.86827240e+00  1.88128850e+00  5.44249300e-01
  1.68714400e-01  1.68714400e-01  8.00000000e-01  4.38000000e-02  4.38000000e-02
  1.87311370e+01  2.82539370e+00  6.40121700e-01  1.61277800e-01  1.87311370e+01
  2.82539370e+00  6.40121700e-01  1.61277800e-01  1.87311370e+01  2.82539370e+00
  6.40121700e-01  1.61277800e-01  1.87311370e+01  2.82539370e+00  6.40121700e-01
  1.61277800e-01  1.87311370e+01  2.82539370e+00  6.40121700e-01  1.61277800e-01
  1.87311370e+01  2.82539370e+00  6.40121700e-01  1.61277800e-01  3.04752490e+03
  4.57369510e+02  1.03948690e+02  2.92101550e+01  9.28666300e+00  3.16392700e+00
  7.86827240e+00  1.88128850e+00  5.44249300e-01  7.86827240e+00  1.88128850e+00
  5.44249300e-01  1.68714400e-01  1.68714400e-01  8.00000000e-01  4.38000000e-02
  4.38000000e-02  5.48467170e+03  8.25234950e+02  1.88046960e+02  5.29645000e+01
  1.68975700e+01  5.79963530e+00  1.55396160e+01  3.59993360e+00  1.01376180e+00
  1.55396160e+01  3.59993360e+00  1.01376180e+00  2.70005800e-01  2.70005800e-01
  8.00000000e-01  8.45000000e-02  8.45000000e-02  1.87311370e+01  2.82539370e+00
  6.40121700e-01  1.61277800e-01  1.87311370e+01  2.82539370e+00  6.40121700e-01
  1.61277800e-01  1.87311370e+01  2.82539370e+00  6.40121700e-01  1.61277800e-01
  1.87311370e+01  2.82539370e+00  6.40121700e-01  1.61277800e-01  5.48467170e+03
  8.25234950e+02  1.88046960e+02  5.29645000e+01  1.68975700e+01  5.79963530e+00
  1.55396160e+01  3.59993360e+00  1.01376180e+00  1.55396160e+01  3.59993360e+00
  1.01376180e+00  2.70005800e-01  2.70005800e-01  8.00000000e-01  8.45000000e-02
  8.45000000e-02  3.04752490e+03  4.57369510e+02  1.03948690e+02  2.92101550e+01
  9.28666300e+00  3.16392700e+00  7.86827240e+00  1.88128850e+00  5.44249300e-01
  7.86827240e+00  1.88128850e+00  5.44249300e-01  1.68714400e-01  1.68714400e-01
  8.00000000e-01  4.38000000e-02  4.38000000e-02  1.87311370e+01  2.82539370e+00
  6.40121700e-01  1.61277800e-01  1.87311370e+01  2.82539370e+00  6.40121700e-01
  1.61277800e-01  1.87311370e+01  2.82539370e+00  6.40121700e-01  1.61277800e-01
Contraction coefficients                   R   N=         315
  1.83470016e-03  1.40373012e-02  6.88426061e-02  2.32184421e-01  4.67941342e-01
  3.62312032e-01 -1.19332409e-01 -1.60854212e-01  1.14345648e+00  6.89990956e-02
  3.16423980e-01  7.44308252e-01  1.00000000e+00  1.00000000e+00  1.00000000e+00
  1.00000000e+00  1.00000000e+00  1.83470016e-03  1.40373012e-02  6.88426061e-02
  2.32184421e-01  4.67941342e-01  3.62312032e-01 -1.19332409e-01 -1.60854212e-01
  1.14345648e+00  6.89990956e-02  3.16423980e-01  7.44308252e-01  1.00000000e+00
  1.00000000e+00  1.00000000e+00  1.00000000e+00  1.00000000e+00  1.83470016e-03
  1.40373012e-02  6.88426061e-02  2.32184421e-01  4.67941342e-01  3.62312032e-01
 -1.19332409e-01 -1.60854212e-01  1.14345648e+00  6.89990956e-02  3.16423980e-01
  7.44308252e-01  1.00000000e+00  1.00000000e+00  1.00000000e+00  1.00000000e+00
  1.00000000e+00  3.34945995e-02  2.34726947e-01  8.13757318e-01  1.00000000e+00
  3.34945995e-02  2.34726947e-01  8.13757318e-01  1.00000000e+00  1.83479944e-03
  1.39949958e-02  6.85869792e-02  2.32240930e-01  4.69069858e-01  3.60454891e-01
 -1.14961023e-01 -1.69118034e-01  1.14585223e+00  6.75800232e-02  3.23907111e-01
  7.40895255e-01  1.00000000e+00  1.00000000e+00  1.00000000e+00  1.00000000e+00
  1.00000000e+00  1.83470016e-03  1.40373012e-02  6.88426061e-02  2.32184421e-01
  4.67941342e-01  3.62312032e-01 -1.19332409e-01 -1.60854212e-01  1.14345648e+00
  6.89990956e-02  3.16423980e-01  7.44308252e-01  1.00000000e+00  1.00000000e+00
  1.00000000e+00  1.00000000e+00  1.00000000e+00  1.83470016e-03  1.40373012e-02
  6.88426061e-02  2.32184421e-01  4.67941342e-01  3.62312032e-01 -1.19332409e-01
 -1.60854212e-01  1.14345648e+00  6.89990956e-02  3.16423980e-01  7.44308252e-01
  1.00000000e+00  1.00000000e+00  1.00000000e+00  1.00000000e+00  1.00000000e+00
  1.83470016e-03  1.40373012e-02  6.88426061e-02  2.32184421e-01  4.67941342e-01
  3.62312032e-01 -1.19332409e-01 -1.60854212e-01  1.14345648e+00  6.89990956e-02
  3.16423980e-01  7.44308252e-01  1.00000000e+00  1.00000000e+00  1.00000000e+00
  1.00000000e+00  1.00000000e+00  1.83470016e-03  1.40373012e-02  6.88426061e-02
  2.32184421e-01  4.67941342e-01  3.62312032e-01 -1.19332409e-01 -1.60854212e-01
  1.14345648e+00  6.89990956e-02  3.16423980e-01  7.44308252e-01  1.00000000e+00
  1.00000000e+00  1.00000000e+00  1.00000000e+00  1.00000000e+00  1.83470016e-03
  1.40373012e-02  6.88426061e-02  2.32184421e-01  4.67941342e-01  3.62312032e-01
 -1.19332409e-01 -1.60854212e-01  1.14345648e+00  6.89990956e-02  3.16423980e-01
  7.44308252e-01  1.00000000e+00  1.00000000e+00  1.00000000e+00  1.00000000e+00
  1.00000000e+00  1.83109981e-03  1.39500985e-02  6.84450927e-02  2.32714275e-01
  4.70192950e-01  3.58520862e-01 -1.10777504e-01 -1.48026305e-01  1.13076704e+00
  7.08742995e-02  3.39752798e-01  7.27158595e-01  1.00000000e+00  1.00000000e+00
  1.00000000e+00  1.00000000e+00  1.00000000e+00  1.83470016e-03  1.40373012e-02
  6.88426061e-02  2.32184421e-01  4.67941342e-01  3.62312032e-01 -1.19332409e-01
 -1.60854212e-01  1.14345648e+00  6.89990956e-02  3.16423980e-01  7.44308252e-01
  1.00000000e+00  1.00000000e+00  1.00000000e+00  1.00000000e+00  1.00000000e+00
  3.34945995e-02  2.34726947e-01  8.13757318e-01  1.00000000e+00  3.34945995e-02
  2.34726947e-01  8.13757318e-01  1.00000000e+00  3.34945995e-02  2.34726947e-01
  8.13757318e-01  1.00000000e+00  3.34945995e-02  2.34726947e-01  8.13757318e-01
  1.00000000e+00  3.34945995e-02  2.34726947e-01  8.13757318e-01  1.00000000e+00
  3.34945995e-02  2.34726947e-01  8.13757318e-01  1.00000000e+00  1.83470016e-03
  1.40373012e-02  6.88426061e-02  2.32184421e-01  4.67941342e-01  3.62312032e-01
 -1.19332409e-01 -1.60854212e-01  1.14345648e+00  6.89990956e-02  3.16423980e-01
  7.44308252e-01  1.00000000e+00  1.00000000e+00  1.00000000e+00  1.00000000e+00
  1.00000000e+00  1.83109981e-03  1.39500985e-02  6.84450927e-02  2.32714275e-01
  4.70192950e-01  3.58520862e-01 -1.10777504e-01 -1.48026305e-01  1.13076704e+00
  7.08742995e-02  3.39752798e-01  7.27158595e-01  1.00000000e+00  1.00000000e+00
  1.00000000e+00  1.00000000e+00  1.00000000e+00  3.34945995e-02  2.34726947e-01
  8.13757318e-01  1.00000000e+00  3.34945995e-02  2.34726947e-01  8.13757318e-01
  1.00000000e+00  3.34945995e-02  2.34726947e-01  8.13757318e-01  1.00000000e+00
  3.34945995e-02  2.34726947e-01  8.13757318e-01  1.00000000e+00  1.83109981e-03
  1.39500985e-02  6.84450927e-02  2.32714275e-01  4.70192950e-01  3.58520862e-01
 -1.10777504e-01 -1.48026305e-01  1.13076704e+00  7.08742995e-02  3.39752798e-01
  7.27158595e-01  1.00000000e+00  1.00000000e+00  1.00000000e+00  1.00000000e+00
  1.00000000e+00  1.83470016e-03  1.40373012e-02  6.88426061e-02  2.32184421e-01
  4.67941342e-01  3.62312032e-01 -1.19332409e-01 -1.60854212e-01  1.14345648e+00
  6.89990956e-02  3.16423980e-01  7.44308252e-01  1.00000000e+00  1.00000000e+00
  1.00000000e+00  1.00000000e+00  1.00000000e+00  3.34945995e-02  2.34726947e-01
  8.13757318e-01  1.00000000e+00  3.34945995e-02  2.34726947e-01  8.13757318e-01
  1.00000000e+00  3.34945995e-02  2.34726947e-01  8.13757318e-01  1.00000000e+00
Coordinates of each shell                  R   N=         450
 -4.43345733e-01 -1.43769802e+00  1.50431915e+00 -4.43345733e-01 -1.43769802e+00
  1.50431915e+00 -4.43345733e-01 -1.43769802e+00  1.50431915e+00 -4.43345733e-01
 -1.43769802e+00  1.50431915e+00 -4.43345733e-01 -1.43769802e+00  1.50431915e+00
 -4.43345733e-01 -1.43769802e+00  1.50431915e+00 -4.43345733e-01 -1.43769802e+00
  1.50431915e+00 -4.43345733e-01 -1.43769802e+00  1.50431915e+00 -2.05872932e+00
 -3.08710556e+00  3.20044819e+00 -2.05872932e+00 -3.08710556e+00  3.20044819e+00
 -2.05872932e+00 -3.08710556e+00  3.20044819e+00 -2.05872932e+00 -3.08710556e+00
  3.20044819e+00 -2.05872932e+00 -3.08710556e+00  3.20044819e+00 -2.05872932e+00
 -3.08710556e+00  3.20044819e+00 -2.05872932e+00 -3.08710556e+00  3.20044819e+00
 -2.05872932e+00 -3.08710556e+00  3.20044819e+00 -4.92150512e+00 -2.41278027e+00
  3.23950316e+00 -4.92150512e+00 -2.41278027e+00  3.23950316e+00 -4.92150512e+00
 -2.41278027e+00  3.23950316e+00 -4.92150512e+00 -2.41278027e+00  3.23950316e+00
 -4.92150512e+00 -2.41278027e+00  3.23950316e+00 -4.92150512e+00 -2.41278027e+00
  3.23950316e+00 -4.92150512e+00 -2.41278027e+00  3.23950316e+00 -4.92150512e+00
 -2.41278027e+00  3.23950316e+00 -1.34255633e+00 -2.99990255e+00  5.14808232e+00
 -1.34255633e+00 -2.99990255e+00  5.14808232e+00 -1.88545243e+00 -5.06784449e+00
  2.59760381e+00 -1.88545243e+00 -5.06784449e+00  2.59760381e+00 -6.45868869e+00
 -4.24861150e+00  4.64831742e+00 -6.45868869e+00 -4.24861150e+00  4.64831742e+00
 -6.45868869e+00 -4.24861150e+00  4.64831742e+00 -6.45868869e+00 -4.24861150e+00
  4.64831742e+00 -6.45868869e+00 -4.24861150e+00  4.64831742e+00 -6.45868869e+00
 -4.24861150e+00  4.64831742e+00 -6.45868869e+00 -4.24861150e+00  4.64831742e+00
 -6.45868869e+00 -4.24861150e+00  4.64831742e+00  1.12028504e+00  4.42938261e-01
  2.54850636e+00  1.12028504e+00  4.42938261e-01  2.54850636e+00  1.12028504e+00
  4.42938261e-01  2.54850636e+00  1.12028504e+00  4.42938261e-01  2.54850636e+00
  1.12028504e+00  4.42938261e-01  2.54850636e+00  1.12028504e+00  4.42938261e-01
  2.54850636e+00  1.12028504e+00  4.42938261e-01  2.54850636e+00  1.12028504e+00
  4.42938261e-01  2.54850636e+00  2.50322428e+00  1.90741286e+00  8.75091540e-01
  2.50322428e+00  1.90741286e+00  8.75091540e-01  2.50322428e+00  1.90741286e+00
  8.75091540e-01  2.50322428e+00  1.90741286e+00  8.75091540e-01  2.50322428e+00
  1.90741286e+00  8.75091540e-01  2.50322428e+00  1.90741286e+00  8.75091540e-01
  2.50322428e+00  1.90741286e+00  8.75091540e-01  2.50322428e+00  1.90741286e+00
  8.75091540e-01  2.39878358e+00  1.58538770e+00 -1.71848439e+00  2.39878358e+00
  1.58538770e+00 -1.71848439e+00  2.39878358e+00  1.58538770e+00 -1.71848439e+00
  2.39878358e+00  1.58538770e+00 -1.71848439e+00  2.39878358e+00  1.58538770e+00
 -1.71848439e+00  2.39878358e+00  1.58538770e+00 -1.71848439e+00  2.39878358e+00
  1.58538770e+00 -1.71848439e+00  2.39878358e+00  1.58538770e+00 -1.71848439e+00
  8.76258844e-01 -2.65478969e-01 -2.80129467e+00  8.76258844e-01 -2.65478969e-01
 -2.80129467e+00  8.76258844e-01 -2.65478969e-01 -2.80129467e+00  8.76258844e-01
 -2.65478969e-01 -2.80129467e+00  8.76258844e-01 -2.65478969e-01 -2.80129467e+00
  8.76258844e-01 -2.65478969e-01 -2.80129467e+00  8.76258844e-01 -2.65478969e-01
 -2.80129467e+00  8.76258844e-01 -2.65478969e-01 -2.80129467e+00 -5.44467107e-01
 -1.77434963e+00 -1.13001607e+00 -5.44467107e-01 -1.77434963e+00 -1.13001607e+00
 -5.44467107e-01 -1.77434963e+00 -1.13001607e+00 -5.44467107e-01 -1.77434963e+00
 -1.13001607e+00 -5.44467107e-01 -1.77434963e+00 -1.13001607e+00 -5.44467107e-01
 -1.77434963e+00 -1.13001607e+00 -5.44467107e-01 -1.77434963e+00 -1.13001607e+00
 -5.44467107e-01 -1.77434963e+00 -1.13001607e+00  4.15606968e+00  3.83798488e+00
  1.44099886e+00  4.15606968e+00  3.83798488e+00  1.44099886e+00  4.15606968e+00
  3.83798488e+00  1.44099886e+00  4.15606968e+00  3.83798488e+00  1.44099886e+00
  4.15606968e+00  3.83798488e+00  1.44099886e+00  4.15606968e+00  3.83798488e+00
  1.44099886e+00  4.15606968e+00  3.83798488e+00  1.44099886e+00  4.15606968e+00
  3.83798488e+00  1.44099886e+00 -5.41928164e+00  2.26775526e-01  4.30906287e+00
 -5.41928164e+00  2.26775526e-01  4.30906287e+00 -5.41928164e+00  2.26775526e-01
  4.30906287e+00 -5.41928164e+00  2.26775526e-01  4.30906287e+00 -5.41928164e+00
  2.26775526e-01  4.30906287e+00 -5.41928164e+00  2.26775526e-01  4.30906287e+00
 -5.41928164e+00  2.26775526e-01  4.30906287e+00 -5.41928164e+00  2.26775526e-01
  4.30906287e+00 -4.78694667e+00  3.50259407e-01  6.28463080e+00 -4.78694667e+00
  3.50259407e-01  6.28463080e+00 -7.44459921e+00  6.45437180e-01  4.25915202e+00
 -7.44459921e+00  6.45437180e-01  4.25915202e+00 -4.40951965e+00  1.67667733e+00
  3.23387426e+00 -4.40951965e+00  1.67667733e+00  3.23387426e+00 -5.60820939e+00
 -2.45800162e+00  1.28026048e+00 -5.60820939e+00 -2.45800162e+00  1.28026048e+00
 -5.97445660e+00 -4.24551705e+00  6.51453817e+00 -5.97445660e+00 -4.24551705e+00
  6.51453817e+00 -6.16980684e+00 -6.03907536e+00  3.99980314e+00 -6.16980684e+00
 -6.03907536e+00  3.99980314e+00  5.10748980e+00  4.74571237e+00 -9.34915522e-01
  5.10748980e+00  4.74571237e+00 -9.34915522e-01  5.10748980e+00  4.74571237e+00
 -9.34915522e-01  5.10748980e+00  4.74571237e+00 -9.34915522e-01  5.10748980e+00
  4.74571237e+00 -9.34915522e-01  5.10748980e+00  4.74571237e+00 -9.34915522e-01
  5.10748980e+00  4.74571237e+00 -9.34915522e-01  5.10748980e+00  4.74571237e+00
 -9.34915522e-01  3.97075361e+00  3.28190773e+00 -2.91352382e+00  3.97075361e+00
  3.28190773e+00 -2.91352382e+00  3.97075361e+00  3.28190773e+00 -2.91352382e+00
  3.97075361e+00  3.28190773e+00 -2.91352382e+00  3.97075361e+00  3.28190773e+00
 -2.91352382e+00  3.97075361e+00  3.28190773e+00 -2.91352382e+00  3.97075361e+00
  3.28190773e+00 -2.91352382e+00  3.97075361e+00  3.28190773e+00 -2.91352382e+00
  7.16233556e+00  4.49525436e+00 -9.88624936e-01  7.16233556e+00  4.49525436e+00
 -9.88624936e-01  4.58391869e+00  6.73609064e+00 -1.16449026e+00  4.58391869e+00
  6.73609064e+00 -1.16449026e+00  1.24723318e+00  7.37625626e-01  4.57388115e+00
  1.24723318e+00  7.37625626e-01  4.57388115e+00 -1.74548624e+00 -3.25404167e+00
 -1.88608591e+00 -1.74548624e+00 -3.25404167e+00 -1.88608591e+00  9.00042966e-01
 -4.64144427e-01 -5.37003321e+00  9.00042966e-01 -4.64144427e-01 -5.37003321e+00
  9.00042966e-01 -4.64144427e-01 -5.37003321e+00  9.00042966e-01 -4.64144427e-01
 -5.37003321e+00  9.00042966e-01 -4.64144427e-01 -5.37003321e+00  9.00042966e-01
 -4.64144427e-01 -5.37003321e+00  9.00042966e-01 -4.64144427e-01 -5.37003321e+00
  9.00042966e-01 -4.64144427e-01 -5.37003321e+00 -6.41410874e-01 -2.34438260e+00
 -6.51419120e+00 -6.41410874e-01 -2.34438260e+00 -6.51419120e+00 -6.41410874e-01
 -2.34438260e+00 -6.51419120e+00 -6.41410874e-01 -2.34438260e+00 -6.51419120e+00
 -6.41410874e-01 -2.34438260e+00 -6.51419120e+00 -6.41410874e-01 -2.34438260e+00
 -6.51419120e+00 -6.41410874e-01 -2.34438260e+00 -6.51419120e+00 -6.41410874e-01
 -2.34438260e+00 -6.51419120e+00 -2.64822774e+00 -2.03509982e+00 -6.08905863e+00
 -2.64822774e+00 -2.03509982e+00 -6.08905863e+00 -8.62848336e-02 -4.24812315e+00
 -5.90437956e+00 -8.62848336e-02 -4.24812315e+00 -5.90437956e+00 -3.31655275e-01
 -2.15565129e+00 -8.54432792e+00 -3.31655275e-01 -2.15565129e+00 -8.54432792e+00
Total Energy                               R     -7.086095364535095e+02
Alpha Orbital Energies                     R   N=         315
 -1.92006353e+01 -1.91987148e+01 -1.91928455e+01 -1.43233967e+01 -1.03094008e+01
 -1.02621561e+01 -1.02549167e+01 -1.02490487e+01 -1.02486473e+01 -1.02213286e+01
 -1.02060244e+01 -1.01942992e+01 -1.01938622e+01 -1.01928116e+01 -1.01750801e+01
 -1.12942455e+00 -1.07638806e+00 -1.03800438e+00 -8.92782357e-01 -8.65248093e-01
 -7.90998193e-01 -7.64686424e-01 -7.42206443e-01 -7.11301094e-01 -7.01395623e-01
 -6.66656252e-01 -6.24051248e-01 -6.09264461e-01 -5.82778665e-01 -5.38799472e-01
 -5.27941173e-01 -5.21826514e-01 -5.19173727e-01 -4.96774626e-01 -4.79553794e-01
 -4.77408415e-01 -4.64624128e-01 -4.57685744e-01 -4.40889820e-01 -4.23711021e-01
 -4.18983092e-01 -4.03631734e-01 -3.89626032e-01 -3.88074636e-01 -3.78900002e-01
 -3.78510369e-01 -3.70063969e-01 -3.67556717e-01 -3.54358204e-01 -3.43397244e-01
 -3.41697638e-01 -3.37429050e-01 -3.03352500e-01 -2.44598328e-01 -2.29006911e-01
 -2.05984947e-01 -1.00611441e-02 -1.01684654e-04  1.99424554e-03  7.65501578e-03
  1.00767920e-02  2.24213960e-02  2.51045177e-02  2.88562592e-02  3.19643228e-02
  4.28679976e-02  4.64571092e-02  4.71356200e-02  5.52382582e-02  5.60983178e-02
  6.13346309e-02  7.16241780e-02  7.74541738e-02  8.27241445e-02  9.24835742e-02
  9.57374161e-02  1.03209144e-01  1.06788374e-01  1.10532412e-01  1.16545673e-01
  1.20017228e-01  1.22970958e-01  1.28151516e-01  1.30954691e-01  1.35397746e-01
  1.41121891e-01  1.44566216e-01  1.47315468e-01  1.51319558e-01  1.60305588e-01
  1.64043234e-01  1.67816062e-01  1.73498105e-01  1.73839233e-01  1.79463799e-01
  1.84743907e-01  1.87699599e-01  1.94702510e-01  1.99817311e-01  2.04098158e-01
  2.05553006e-01  2.11167502e-01  2.14856386e-01  2.15220203e-01  2.26327822e-01
  2.31548524e-01  2.34469181e-01  2.36382586e-01  2.38661276e-01  2.41162636e-01
  2.48787896e-01  2.58296229e-01  2.64446137e-01  2.69218311e-01  2.70218834e-01
  2.77879481e-01  2.81863307e-01  2.87530490e-01  2.90417281e-01  2.93194624e-01
  2.95746133e-01  2.98702939e-01  3.07274894e-01  3.08252026e-01  3.14377174e-01