Generated by Psi4
     FORCE                           RHF                       TESTBAS
Number of atoms                            I               26
Charge                                     I                0
Multiplicity                               I                1
Number of electrons                        I               96
Number of alpha electrons                  I               48
Number of beta electrons                   I               48
Number of basis functions                  I              273
Number of independent functions            I              273
Atomic numbers                             I   N=          26
           6           6           6           1           1           7
           6           6           6           6           6           1
           1           8           6           1           1           1
           1           1           1           1           6           8
           1           1
Nuclear charges                            R   N=          26
  6.00000000e+00  6.00000000e+00  6.00000000e+00  1.00000000e+00  1.00000000e+00
  7.00000000e+00  6.00000000e+00  6.00000000e+00  6.00000000e+00  6.00000000e+00
  6.00000000e+00  1.00000000e+00  1.00000000e+00  8.00000000e+00  6.00000000e+00
  1.00000000e+00  1.00000000e+00  1.00000000e+00  1.00000000e+00  1.00000000e+00
  1.00000000e+00  1.00000000e+00  6.00000000e+00  8.00000000e+00  1.00000000e+00
  1.00000000e+00
Current cartesian coordinates              R   N=          78
 -9.65446776e-01 -1.47540836e+00  5.05540880e-01 -2.71528713e+00 -2.56774641e+00
  2.49234392e+00 -4.94347542e+00 -8.19572116e-01  3.28854199e+00 -1.63070803e+00
 -3.05869594e+00  4.19498368e+00 -3.52968902e+00 -4.34101229e+00  1.78106075e+00
 -6.77862048e+00 -2.07504298e+00  4.95343173e+00  1.40210194e+00 -4.54263312e-01
  1.20229120e+00  2.88692567e+00  5.71563403e-01 -6.84196576e-01  2.12473162e+00
  6.09118550e-01 -3.20205980e+00 -1.67857950e-01 -3.90384759e-01 -3.94931409e+00
 -1.70037057e+00 -1.43266629e+00 -2.04102132e+00  2.04318277e+00 -4.80725794e-01
  3.15162179e+00 -7.48650818e-01 -3.86613585e-01 -5.91633336e+00  5.27984045e+00
  1.58776710e+00 -4.87595594e-01 -4.03926630e+00  1.60819835e+00  4.57286025e+00
 -3.01461556e+00  1.17359842e+00  6.32781278e+00 -5.65784760e+00  2.80155312e+00
  5.05803981e+00 -2.76382480e+00  2.68002473e+00  3.34688569e+00 -5.97901078e+00
 -2.96019382e-01  1.56647531e+00 -5.95354508e+00 -2.56211718e+00  6.62656634e+00
 -7.43665441e+00 -3.70197498e+00  4.15988601e+00 -3.51494499e+00 -2.23903364e+00
 -2.57090266e+00  5.74642975e+00  2.73896979e+00 -2.89620720e+00  4.01622335e+00
  1.64601860e+00 -4.66897023e+00  7.68006329e+00  2.33346256e+00 -3.48551185e+00
  5.39271871e+00  4.78248615e+00 -2.75847470e+00
Integer atomic weights                     I   N=          26
          12          12          12           1           1          14
          12          12          12          12          12           1
           1          15          12           1           1           1
           1           1           1           1          12          15
           1           1
Real atomic weights                        R   N=          26
  1.20000000e+01  1.20000000e+01  1.20000000e+01  1.00782503e+00  1.00782503e+00
  1.40030740e+01  1.20000000e+01  1.20000000e+01  1.20000000e+01  1.20000000e+01
  1.20000000e+01  1.00782503e+00  1.00782503e+00  1.59949146e+01  1.20000000e+01
  1.00782503e+00  1.00782503e+00  1.00782503e+00  1.00782503e+00  1.00782503e+00
  1.00782503e+00  1.00782503e+00  1.20000000e+01  1.59949146e+01  1.00782503e+00
  1.00782503e+00
Number of primitive shells                 I              273
Number of contracted shells                I              130
Pure/Cartesian d shells                    I                1
Pure/Cartesian f shells                    I                1
Highest angular momentum                   I                2
Largest degree of contraction              I                6
Shell types                                I   N=         130
           0           0           1           0           1           2
           0           1           0           0           1           0
           1           2           0           1           0           0
           1           0           1           2           0           1
           0           0           0           0           0           0
           1           0           1           2           0           1
           0           0           1           0           1           2
           0           1           0           0           1           0
           1           2           0           1           0           0
           1           0           1           2           0           1
           0           0           1           0           1           2
           0           1           0           0           1           0
           1           2           0           1           0           0
           0           0           0           0           1           0
           1           2           0           1           0           0
           1           0           1           2           0           1
           0           0           0           0           0           0
           0           0           0           0           0           0
           0           0           0           0           1           0
           1           2           0           1           0           0
           1           0           1           2           0           1
           0           0           0           0
Number of primitives per shell             I   N=         130
           6           3           3           1           1           1
           1           1           6           3           3           1
           1           1           1           1           6           3
           3           1           1           1           1           1
           3           1           3           1           6           3
           3           1           1           1           1           1
           6           3           3           1           1           1
           1           1           6           3           3           1
           1           1           1           1           6           3
           3           1           1           1           1           1
           6           3           3           1           1           1
           1           1           6           3           3           1
           1           1           1           1           3           1
           3           1           6           3           3           1
           1           1           1           1           6           3
           3           1           1           1           1           1
           3           1           3           1           3           1
           3           1           3           1           3           1
           3           1           6           3           3           1
           1           1           1           1           6           3
           3           1           1           1           1           1
           3           1           3           1
Shell to atom map                          I   N=         130
           1           1           1           1           1           1
           1           1           2           2           2           2
           2           2           2           2           3           3
           3           3           3           3           3           3
           4           4           5           5           6           6
           6           6           6           6           6           6
           7           7           7           7           7           7
           7           7           8           8           8           8
           8           8           8           8           9           9
           9           9           9           9           9           9
          10          10          10          10          10          10
          10          10          11          11          11          11
          11          11          11          11          12          12
          13          13          14          14          14          14
          14          14          14          14          15          15
          15          15          15          15          15          15
          16          16          17          17          18          18
          19          19          20          20          21          21
          22          22          23          23          23          23
          23          23          23          23          24          24
          24          24          24          24          24          24
          25          25          26          26
Primitive exponents                        R   N=         273
  3.04752490e+03  4.57369510e+02  1.03948690e+02  2.92101550e+01  9.28666300e+00
  3.16392700e+00  7.86827240e+00  1.88128850e+00  5.44249300e-01  7.86827240e+00
  1.88128850e+00  5.44249300e-01  1.68714400e-01  1.68714400e-01  8.00000000e-01
  4.38000000e-02  4.38000000e-02  3.04752490e+03  4.57369510e+02  1.03948690e+02
  2.92101550e+01  9.28666300e+00  3.16392700e+00  7.86827240e+00  1.88128850e+00
  5.44249300e-01  7.86827240e+00  1.88128850e+00  5.44249300e-01  1.68714400e-01
  1.68714400e-01  8.00000000e-01  4.38000000e-02  4.38000000e-02  3.04752490e+03
  4.57369510e+02  1.03948690e+02  2.92101550e+01  9.28666300e+00  3.16392700e+00
  7.86827240e+00  1.88128850e+00  5.44249300e-01  7.86827240e+00  1.88128850e+00
  5.44249300e-01  1.68714400e-01  1.68714400e-01  8.00000000e-01  4.38000000e-02
  4.38000000e-02  1.87311370e+01  2.82539370e+00  6.40121700e-01  1.61277800e-01
  1.87311370e+01  2.82539370e+00  6.40121700e-01  1.61277800e-01  4.17351100e+03
  6.27457900e+02  1.42902100e+02  4.02343300e+01  1.28202100e+01  4.39043700e+00
  1.16263580e+01  2.71628000e+00  7.72218000e-01  1.16263580e+01  2.71628000e+00
  7.72218000e-01  2.12031300e-01  2.12031300e-01  8.00000000e-01  6.39000000e-02
  6.39000000e-02  3.04752490e+03  4.57369510e+02  1.03948690e+02  2.92101550e+01
  9.28666300e+00  3.16392700e+00  7.86827240e+00  1.88128850e+00  5.44249300e-01
  7.86827240e+00  1.88128850e+00  5.44249300e-01  1.68714400e-01  1.68714400e-01
  8.00000000e-01  4.38000000e-02  4.38000000e-02  3.04752490e+03  4.57369510e+02
  1.03948690e+02  2.92101550e+01  9.28666300e+00  3.16392700e+00  7.86827240e+00
  1.88128850e+00  5.44249300e-01  7.86827240e+00  1.88128850e+00  5.44249300e-01
  1.68714400e-01  1.68714400e-01  8.00000000e-01  4.38000000e-02  4.38000000e-02
  3.04752490e+03  4.57369510e+02  1.03948690e+02  2.92101550e+01  9.28666300e+00
  3.16392700e+00  7.86827240e+00  1.88128850e+00  5.44249300e-01  7.86827240e+00
  1.88128850e+00  5.44249300e-01  1.68714400e-01  1.68714400e-01  8.00000000e-01
  4.38000000e-02  4.38000000e-02  3.04752490e+03  4.57369510e+02  1.03948690e+02
  2.92101550e+01  9.28666300e+00  3.16392700e+00  7.86827240e+00  1.88128850e+00
  5.44249300e-01  7.86827240e+00  1.88128850e+00  5.44249300e-01  1.68714400e-01
  1.68714400e-01  8.00000000e-01  4.38000000e-02  4.38000000e-02  3.04752490e+03
  4.57369510e+02  1.03948690e+02  2.92101550e+01  9.28666300e+00  3.16392700e+00
  7.86827240e+00  1.88128850e+00  5.44249300e-01  7.86827240e+00  1.88128850e+00
  5.44249300e-01  1.68714400e-01  1.68714400e-01  8.00000000e-01  4.38000000e-02
  4.38000000e-02  1.87311370e+01  2.82539370e+00  6.40121700e-01  1.61277800e-01
  1.87311370e+01  2.82539370e+00  6.40121700e-01  1.61277800e-01  5.48467170e+03
  8.25234950e+02  1.88046960e+02  5.29645000e+01  1.68975700e+01  5.79963530e+00
  1.55396160e+01  3.59993360e+00  1.01376180e+00  1.55396160e+01  3.59993360e+00
  1.01376180e+00  2.70005800e-01  2.70005800e-01  8.00000000e-01  8.45000000e-02
  8.45000000e-02  3.04752490e+03  4.57369510e+02  1.03948690e+02  2.92101550e+01
  9.28666300e+00  3.16392700e+00  7.86827240e+00  1.88128850e+00  5.44249300e-01
  7.86827240e+00  1.88128850e+00  5.44249300e-01  1.68714400e-01  1.68714400e-01
  8.00000000e-01  4.38000000e-02  4.38000000e-02  1.87311370e+01  2.82539370e+00
  6.40121700e-01  1.61277800e-01  1.87311370e+01  2.82539370e+00  6.40121700e-01
  1.61277800e-01  1.87311370e+01  2.82539370e+00  6.40121700e-01  1.61277800e-01
  1.87311370e+01  2.82539370e+00  6.40121700e-01  1.61277800e-01  1.87311370e+01
  2.82539370e+00  6.40121700e-01  1.61277800e-01  1.87311370e+01  2.82539370e+00
  6.40121700e-01  1.61277800e-01  1.87311370e+01  2.82539370e+00  6.40121700e-01
  1.61277800e-01  3.04752490e+03  4.57369510e+02  1.03948690e+02  2.92101550e+01
  9.28666300e+00  3.16392700e+00  7.86827240e+00  1.88128850e+00  5.44249300e-01
  7.86827240e+00  1.88128850e+00  5.44249300e-01  1.68714400e-01  1.68714400e-01
  8.00000000e-01  4.38000000e-02  4.38000000e-02  5.48467170e+03  8.25234950e+02
  1.88046960e+02  5.29645000e+01  1.68975700e+01  5.79963530e+00  1.55396160e+01
  3.59993360e+00  1.01376180e+00  1.55396160e+01  3.59993360e+00  1.01376180e+00
  2.70005800e-01  2.70005800e-01  8.00000000e-01  8.45000000e-02  8.45000000e-02
  1.87311370e+01  2.82539370e+00  6.40121700e-01  1.61277800e-01  1.87311370e+01
  2.82539370e+00  6.40121700e-01  1.61277800e-01
Contraction coefficients                   R   N=         273
  1.83470016e-03  1.40373012e-02  6.88426061e-02  2.32184421e-01  4.67941342e-01
  3.62312032e-01 -1.19332409e-01 -1.60854212e-01  1.14345648e+00  6.89990956e-02
  3.16423980e-01  7.44308252e-01  1.00000000e+00  1.00000000e+00  1.00000000e+00
  1.00000000e+00  1.00000000e+00  1.83470016e-03  1.40373012e-02  6.88426061e-02
  2.32184421e-01  4.67941342e-01  3.62312032e-01 -1.19332409e-01 -1.60854212e-01
  1.14345648e+00  6.89990956e-02  3.16423980e-01  7.44308252e-01  1.00000000e+00
  1.00000000e+00  1.00000000e+00  1.00000000e+00  1.00000000e+00  1.83470016e-03
  1.40373012e-02  6.88426061e-02  2.32184421e-01  4.67941342e-01  3.62312032e-01
 -1.19332409e-01 -1.60854212e-01  1.14345648e+00  6.89990956e-02  3.16423980e-01
  7.44308252e-01  1.00000000e+00  1.00000000e+00  1.00000000e+00  1.00000000e+00
  1.00000000e+00  3.34945995e-02  2.34726947e-01  8.13757318e-01  1.00000000e+00
  3.34945995e-02  2.34726947e-01  8.13757318e-01  1.00000000e+00  1.83479944e-03
  1.39949958e-02  6.85869792e-02  2.32240930e-01  4.69069858e-01  3.60454891e-01
 -1.14961023e-01 -1.69118034e-01  1.14585223e+00  6.75800232e-02  3.23907111e-01
  7.40895255e-01  1.00000000e+00  1.00000000e+00  1.00000000e+00  1.00000000e+00
  1.00000000e+00  1.83470016e-03  1.40373012e-02  6.88426061e-02  2.32184421e-01
  4.67941342e-01  3.62312032e-01 -1.19332409e-01 -1.60854212e-01  1.14345648e+00
  6.89990956e-02  3.16423980e-01  7.44308252e-01  1.00000000e+00  1.00000000e+00
  1.00000000e+00  1.00000000e+00  1.00000000e+00  1.83470016e-03  1.40373012e-02
  6.88426061e-02  2.32184421e-01  4.67941342e-01  3.62312032e-01 -1.19332409e-01
 -1.60854212e-01  1.14345648e+00  6.89990956e-02  3.16423980e-01  7.44308252e-01
  1.00000000e+00  1.00000000e+00  1.00000000e+00  1.00000000e+00  1.00000000e+00
  1.83470016e-03  1.40373012e-02  6.88426061e-02  2.32184421e-01  4.67941342e-01
  3.62312032e-01 -1.19332409e-01 -1.60854212e-01  1.14345648e+00  6.89990956e-02
  3.16423980e-01  7.44308252e-01  1.00000000e+00  1.00000000e+00  1.00000000e+00
  1.00000000e+00  1.00000000e+00  1.83470016e-03  1.40373012e-02  6.88426061e-02
  2.32184421e-01  4.67941342e-01  3.62312032e-01 -1.19332409e-01 -1.60854212e-01
  1.14345648e+00  6.89990956e-02  3.16423980e-01  7.44308252e-01  1.00000000e+00
  1.00000000e+00  1.00000000e+00  1.00000000e+00  1.00000000e+00  1.83470016e-03
  1.40373012e-02  6.88426061e-02  2.32184421e-01  4.67941342e-01  3.62312032e-01
 -1.19332409e-01 -1.60854212e-01  1.14345648e+00  6.89990956e-02  3.16423980e-01
  7.44308252e-01  1.00000000e+00  1.00000000e+00  1.00000000e+00  1.00000000e+00
  1.00000000e+00  3.34945995e-02  2.34726947e-01  8.13757318e-01  1.00000000e+00
  3.34945995e-02  2.34726947e-01  8.13757318e-01  1.00000000e+00  1.83109981e-03
  1.39500985e-02  6.84450927e-02  2.32714275e-01  4.70192950e-01  3.58520862e-01
 -1.10777504e-01 -1.48026305e-01  1.13076704e+00  7.08742995e-02  3.39752798e-01
  7.27158595e-01  1.00000000e+00  1.00000000e+00  1.00000000e+00  1.00000000e+00
  1.00000000e+00  1.83470016e-03  1.40373012e-02  6.88426061e-02  2.32184421e-01
  4.67941342e-01  3.62312032e-01 -1.19332409e-01 -1.60854212e-01  1.14345648e+00
  6.89990956e-02  3.16423980e-01  7.44308252e-01  1.00000000e+00  1.00000000e+00
  1.00000000e+00  1.00000000e+00  1.00000000e+00  3.34945995e-02  2.34726947e-01
  8.13757318e-01  1.00000000e+00  3.34945995e-02  2.34726947e-01  8.13757318e-01
  1.00000000e+00  3.34945995e-02  2.34726947e-01  8.13757318e-01  1.00000000e+00
  3.34945995e-02  2.34726947e-01  8.13757318e-01  1.00000000e+00  3.34945995e-02
  2.34726947e-01  8.13757318e-01  1.00000000e+00  3.34945995e-02  2.34726947e-01
  8.13757318e-01  1.00000000e+00  3.34945995e-02  2.34726947e-01  8.13757318e-01
  1.00000000e+00  1.83470016e-03  1.40373012e-02  6.88426061e-02  2.32184421e-01
  4.67941342e-01  3.62312032e-01 -1.19332409e-01 -1.60854212e-01  1.14345648e+00
  6.89990956e-02  3.16423980e-01  7.44308252e-01  1.00000000e+00  1.00000000e+00
  1.00000000e+00  1.00000000e+00  1.00000000e+00  1.83109981e-03  1.39500985e-02
  6.84450927e-02  2.32714275e-01  4.70192950e-01  3.58520862e-01 -1.10777504e-01
 -1.48026305e-01  1.13076704e+00  7.08742995e-02  3.39752798e-01  7.27158595e-01
  1.00000000e+00  1.00000000e+00  1.00000000e+00  1.00000000e+00  1.00000000e+00
  3.34945995e-02  2.34726947e-01  8.13757318e-01  1.00000000e+00  3.34945995e-02
  2.34726947e-01  8.13757318e-01  1.00000000e+00
Coordinates of each shell                  R   N=         390
 -9.65446776e-01 -1.47540836e+00  5.05540880e-01 -9.65446776e-01 -1.47540836e+00
  5.05540880e-01 -9.65446776e-01 -1.47540836e+00  5.05540880e-01 -9.65446776e-01
 -1.47540836e+00  5.05540880e-01 -9.65446776e-01 -1.47540836e+00  5.05540880e-01
 -9.65446776e-01 -1.47540836e+00  5.05540880e-01 -9.65446776e-01 -1.47540836e+00
  5.05540880e-01 -9.65446776e-01 -1.47540836e+00  5.05540880e-01 -2.71528713e+00
 -2.56774641e+00  2.49234392e+00 -2.71528713e+00 -2.56774641e+00  2.49234392e+00
 -2.71528713e+00 -2.56774641e+00  2.49234392e+00 -2.71528713e+00 -2.56774641e+00
  2.49234392e+00 -2.71528713e+00 -2.56774641e+00  2.49234392e+00 -2.71528713e+00
 -2.56774641e+00  2.49234392e+00 -2.71528713e+00 -2.56774641e+00  2.49234392e+00
 -2.71528713e+00 -2.56774641e+00  2.49234392e+00 -4.94347542e+00 -8.19572116e-01
  3.28854199e+00 -4.94347542e+00 -8.19572116e-01  3.28854199e+00 -4.94347542e+00
 -8.19572116e-01  3.28854199e+00 -4.94347542e+00 -8.19572116e-01  3.28854199e+00
 -4.94347542e+00 -8.19572116e-01  3.28854199e+00 -4.94347542e+00 -8.19572116e-01
  3.28854199e+00 -4.94347542e+00 -8.19572116e-01  3.28854199e+00 -4.94347542e+00
 -8.19572116e-01  3.28854199e+00 -1.63070803e+00 -3.05869594e+00  4.19498368e+00
 -1.63070803e+00 -3.05869594e+00  4.19498368e+00 -3.52968902e+00 -4.34101229e+00
  1.78106075e+00 -3.52968902e+00 -4.34101229e+00  1.78106075e+00 -6.77862048e+00
 -2.07504298e+00  4.95343173e+00 -6.77862048e+00 -2.07504298e+00  4.95343173e+00
 -6.77862048e+00 -2.07504298e+00  4.95343173e+00 -6.77862048e+00 -2.07504298e+00
  4.95343173e+00 -6.77862048e+00 -2.07504298e+00  4.95343173e+00 -6.77862048e+00
 -2.07504298e+00  4.95343173e+00 -6.77862048e+00 -2.07504298e+00  4.95343173e+00
 -6.77862048e+00 -2.07504298e+00  4.95343173e+00  1.40210194e+00 -4.54263312e-01
  1.20229120e+00  1.40210194e+00 -4.54263312e-01  1.20229120e+00  1.40210194e+00
 -4.54263312e-01  1.20229120e+00  1.40210194e+00 -4.54263312e-01  1.20229120e+00
  1.40210194e+00 -4.54263312e-01  1.20229120e+00  1.40210194e+00 -4.54263312e-01
  1.20229120e+00  1.40210194e+00 -4.54263312e-01  1.20229120e+00  1.40210194e+00
 -4.54263312e-01  1.20229120e+00  2.88692567e+00  5.71563403e-01 -6.84196576e-01
  2.88692567e+00  5.71563403e-01 -6.84196576e-01  2.88692567e+00  5.71563403e-01
 -6.84196576e-01  2.88692567e+00  5.71563403e-01 -6.84196576e-01  2.88692567e+00
  5.71563403e-01 -6.84196576e-01  2.88692567e+00  5.71563403e-01 -6.84196576e-01
  2.88692567e+00  5.71563403e-01 -6.84196576e-01  2.88692567e+00  5.71563403e-01
 -6.84196576e-01  2.12473162e+00  6.09118550e-01 -3.20205980e+00  2.12473162e+00
  6.09118550e-01 -3.20205980e+00  2.12473162e+00  6.09118550e-01 -3.20205980e+00
  2.12473162e+00  6.09118550e-01 -3.20205980e+00  2.12473162e+00  6.09118550e-01
 -3.20205980e+00  2.12473162e+00  6.09118550e-01 -3.20205980e+00  2.12473162e+00
  6.09118550e-01 -3.20205980e+00  2.12473162e+00  6.09118550e-01 -3.20205980e+00
 -1.67857950e-01 -3.90384759e-01 -3.94931409e+00 -1.67857950e-01 -3.90384759e-01
 -3.94931409e+00 -1.67857950e-01 -3.90384759e-01 -3.94931409e+00 -1.67857950e-01
 -3.90384759e-01 -3.94931409e+00 -1.67857950e-01 -3.90384759e-01 -3.94931409e+00
 -1.67857950e-01 -3.90384759e-01 -3.94931409e+00 -1.67857950e-01 -3.90384759e-01
 -3.94931409e+00 -1.67857950e-01 -3.90384759e-01 -3.94931409e+00 -1.70037057e+00
 -1.43266629e+00 -2.04102132e+00 -1.70037057e+00 -1.43266629e+00 -2.04102132e+00
 -1.70037057e+00 -1.43266629e+00 -2.04102132e+00 -1.70037057e+00 -1.43266629e+00
 -2.04102132e+00 -1.70037057e+00 -1.43266629e+00 -2.04102132e+00 -1.70037057e+00
 -1.43266629e+00 -2.04102132e+00 -1.70037057e+00 -1.43266629e+00 -2.04102132e+00
 -1.70037057e+00 -1.43266629e+00 -2.04102132e+00  2.04318277e+00 -4.80725794e-01
  3.15162179e+00  2.04318277e+00 -4.80725794e-01  3.15162179e+00 -7.48650818e-01
 -3.86613585e-01 -5.91633336e+00 -7.48650818e-01 -3.86613585e-01 -5.91633336e+00
  5.27984045e+00  1.58776710e+00 -4.87595594e-01  5.27984045e+00  1.58776710e+00
 -4.87595594e-01  5.27984045e+00  1.58776710e+00 -4.87595594e-01  5.27984045e+00
  1.58776710e+00 -4.87595594e-01  5.27984045e+00  1.58776710e+00 -4.87595594e-01
  5.27984045e+00  1.58776710e+00 -4.87595594e-01  5.27984045e+00  1.58776710e+00
 -4.87595594e-01  5.27984045e+00  1.58776710e+00 -4.87595594e-01 -4.03926630e+00
  1.60819835e+00  4.57286025e+00 -4.03926630e+00  1.60819835e+00  4.57286025e+00
 -4.03926630e+00  1.60819835e+00  4.57286025e+00 -4.03926630e+00  1.60819835e+00
  4.57286025e+00 -4.03926630e+00  1.60819835e+00  4.57286025e+00 -4.03926630e+00
  1.60819835e+00  4.57286025e+00 -4.03926630e+00  1.60819835e+00  4.57286025e+00
 -4.03926630e+00  1.60819835e+00  4.57286025e+00 -3.01461556e+00  1.17359842e+00
  6.32781278e+00 -3.01461556e+00  1.17359842e+00  6.32781278e+00 -5.65784760e+00
  2.80155312e+00  5.05803981e+00 -5.65784760e+00  2.80155312e+00  5.05803981e+00
 -2.76382480e+00  2.68002473e+00  3.34688569e+00 -2.76382480e+00  2.68002473e+00
  3.34688569e+00 -5.97901078e+00 -2.96019382e-01  1.56647531e+00 -5.97901078e+00
 -2.96019382e-01  1.56647531e+00 -5.95354508e+00 -2.56211718e+00  6.62656634e+00
 -5.95354508e+00 -2.56211718e+00  6.62656634e+00 -7.43665441e+00 -3.70197498e+00
  4.15988601e+00 -7.43665441e+00 -3.70197498e+00  4.15988601e+00 -3.51494499e+00
 -2.23903364e+00 -2.57090266e+00 -3.51494499e+00 -2.23903364e+00 -2.57090266e+00
  5.74642975e+00  2.73896979e+00 -2.89620720e+00  5.74642975e+00  2.73896979e+00
 -2.89620720e+00  5.74642975e+00  2.73896979e+00 -2.89620720e+00  5.74642975e+00
  2.73896979e+00 -2.89620720e+00  5.74642975e+00  2.73896979e+00 -2.89620720e+00
  5.74642975e+00  2.73896979e+00 -2.89620720e+00  5.74642975e+00  2.73896979e+00
 -2.89620720e+00  5.74642975e+00  2.73896979e+00 -2.89620720e+00  4.01622335e+00
  1.64601860e+00 -4.66897023e+00  4.01622335e+00  1.64601860e+00 -4.66897023e+00
  4.01622335e+00  1.64601860e+00 -4.66897023e+00  4.01622335e+00  1.64601860e+00
 -4.66897023e+00  4.01622335e+00  1.64601860e+00 -4.66897023e+00  4.01622335e+00
  1.64601860e+00 -4.66897023e+00  4.01622335e+00  1.64601860e+00 -4.66897023e+00
  4.01622335e+00  1.64601860e+00 -4.66897023e+00  7.68006329e+00  2.33346256e+00
 -3.48551185e+00  7.68006329e+00  2.33346256e+00 -3.48551185e+00  5.39271871e+00
  4.78248615e+00 -2.75847470e+00  5.39271871e+00  4.78248615e+00 -2.75847470e+00
Total Energy                               R     -5.940884729587300e+02
Alpha Orbital Energies                     R   N=         273
 -1.92039405e+01 -1.92034681e+01 -1.43235457e+01 -1.03127303e+01 -1.02569301e+01
 -1.02554226e+01 -1.02217701e+01 -1.02064436e+01 -1.02052317e+01 -1.02025549e+01
 -1.01981071e+01 -1.01935808e+01 -1.01761364e+01 -1.13423941e+00 -1.04246149e+00
 -8.93127438e-01 -8.68375121e-01 -7.89987005e-01 -7.62127776e-01 -7.40445817e-01
 -7.03355241e-01 -6.68054771e-01 -6.30536349e-01 -6.18080636e-01 -5.83540987e-01
 -5.32106070e-01 -5.26191274e-01 -5.22469824e-01 -5.02479184e-01 -4.89444443e-01
 -4.59237824e-01 -4.55916944e-01 -4.49203760e-01 -4.26992442e-01 -4.18422274e-01
 -3.99324607e-01 -3.95846600e-01 -3.91636015e-01 -3.81025754e-01 -3.70318240e-01
 -3.65070100e-01 -3.56060367e-01 -3.53794751e-01 -3.39200231e-01 -3.15556914e-01
 -2.57636637e-01 -2.42119609e-01 -2.14133466e-01 -1.68425489e-02 -1.00229978e-02
  1.81361294e-03  1.01006994e-02  1.49953550e-02  2.29739232e-02  2.92634419e-02
  3.15519539e-02  3.76717266e-02  4.37025001e-02  4.75228667e-02  5.16243221e-02
  5.90602930e-02  7.28790137e-02  7.64716956e-02  8.26829601e-02  8.88562150e-02
  9.59454794e-02  9.96354889e-02  1.06783684e-01  1.11562804e-01  1.18185716e-01
  1.21218901e-01  1.26433194e-01  1.29263981e-01  1.32465980e-01  1.38640405e-01
  1.43621640e-01  1.46161381e-01  1.55020695e-01  1.64577154e-01  1.67058183e-01
  1.69012408e-01  1.71937307e-01  1.78797560e-01  1.82667890e-01  1.89794552e-01
  1.97144634e-01  2.00168266e-01  2.05087228e-01  2.06922549e-01  2.08291315e-01
  2.13097574e-01  2.16521247e-01  2.24540796e-01  2.27140467e-01  2.33377108e-01
  2.40641577e-01  2.45307269e-01  2.47402729e-01  2.54100343e-01  2.61531946e-01
  2.65636439e-01  2.72190213e-01  2.80342970e-01  2.85620089e-01  2.88994695e-01
  2.92622762e-01  2.95123477e-01  3.01030962e-01  3.04464339e-01  3.06342869e-01
  3.11791636e-01  3.19097237e-01  3.23427596e-01  3.25355781e-01  3.32520180e-01
  3.42343548e-01  3.48292260e-01  3.64161614e-01  3.69213976e-01  3.71184082e-01
  3.81541322e-01  3.87302552e-01  3.96022760e-01  4.13688970e-01  4.38210283e-01
  4.45422196e-01  4.66747447e-01  4.71054487e-01  5.81854555e-01  6.15011266e-01
  6.42871002e-01  6.48392845e-01  6.58484322e-01  6.71694009e-01  6.83785219e-01
  6.93877831e-01  6.95932086e-01  7.04689040e-01  7.23123845e-01  7.39339657e-01
  7.52915109e-01  7.62008045e-01  7.73296792e-01  7.79058051e-01  7.79789674e-01
  7.92923884e-01  7.99259119e-01  8.03973189e-01  8.27226786e-01  8.45744857e-01
  8.82707150e-01  8.83732789e-01  8.95749857e-01  9.03828516e-01  9.29850421e-01
  9.44026769e-01  9.50108846e-01  9.65612860e-01  9.77676771e-01  9.84526158e-01
  1.00461232e+00  1.01405123e+00  1.02649067e+00  1.04914828e+00  1.05945457e+00
  1.07088663e+00  1.08241894e+00  1.09763006e+00  1.10659589e+00  1.13629971e+00
  1.14215558e+00  1.15961834e+00  1.17063002e+00  1.17369225e+00  1.18832656e+00
  1.19927006e+00  1.20237238e+00  1.22146692e+00  1.24397187e+00  1.24825522e+00
  1.25733794e+00  1.26622525e+00  1.28447262e+00  1.30914788e+00  1.31468664e+00
  1.35845493e+00  1.37781169e+00  1.39430362e+00  1.40882916e+00  1.41966997e+00
  1.43679430e+00  1.45598979e+00  1.46703571e+00  1.48506003e+00  1.49026032e+00
  1.50355075e+00  1.57027830e+00  1.58444198e+00  1.60456546e+00  1.61769598e+00
  1.67487423e+00  1.73370295e+00  1.78243020e+00  1.79216751e+00  1.81173054e+00
  1.83458033e+00  1.85366310e+00  1.86033378e+00  1.87079780e+00  1.88426036e+00
  1.89584080e+00  1.92141224e+00  1.94043866e+00  1.96539149e+00  1.98328189e+00
  1.98932469e+00  1.99969129e+00  2.01981821e+00  2.02990997e+00  2.05002151e+00
  2.06178553e+00  2.08797867e+00  2.11064766e+00  2.12558092e+00  2.13498195e+00
  2.17239013e+00  2.20071665e+00  2.21490039e+00  2.21963113e+00  2.22613024e+00
  2.24862500e+00  2.30249504e+00  2.31560599e+00  2.32269963e+00  2.33577860e+00
  2.35815410e+00  2.41916258e+00  2.42715055e+00  2.46668283e+00  2.50783754e+00
  2.54051947e+00  2.55852515e+00  2.58347656e+00  2.61073467e+00  2.61986293e+00
  2.65535498e+00  2.67121536e+00  2.72248450e+00  2.73292980e+00  2.75679284e+00
  2.82687828e+00  2.83666563e+00  2.86696116e+00  2.89309451e+00  2.91791609e+00
  2.96636607e+00  3.07013602e+00  3.08356291e+00  3.23855729e+00  3.46509637e+00
  3.98833888e+00  4.21020373e+00  4.24441173e+00  4.27314471e+00  4.31968161e+00
  4.36502742e+00  4.40107937e+00  4.45542844e+00  4.48280267e+00  4.53355250e+00
  4.61304312e+00  4.61931202e+00  5.00658202e+00
Alpha MO coefficients                      R   N=       74529
  2.05481873e-06  6.54748132e-06  1.50377005e-05  1.43490107e-05 -2.35186560e-05
  9.12900756e-05 -2.25879656e-05 -1.01007544e-04  5.78269365e-04  6.36878037e-06
  6.06649331e-06  2.33685596e-06  3.30102405e-06  7.40409550e-06  3.64738881e-06
 -4.84819197e-04  2.68932183e-03  1.39798913e-04  7.29603872e-03 -1.49435198e-06
  2.34780843e-06 -1.99075138e-05 -1.35279381e-05  8.65749387e-07 -2.43969287e-04
 -4.59494918e-05  5.63421147e-06  1.17863929e-04 -8.87804087e-06 -9.85777635e-06
 -3.48004226e-06 -3.30495159e-06  7.25515843e-06  5.04888083e-07 -5.74737663e-03
 -7.89748234e-04 -6.16589753e-04  5.99998256e-04 -2.34965600e-07 -2.66172649e-06
  8.10843013e-06  2.06794310e-06  4.28399272e-07  4.46547195e-05 -6.01302482e-05
 -1.72665050e-05 -2.16813755e-06 -2.64762936e-06  1.58228864e-06  3.59678646e-06
  5.42809668e-09 -3.32437227e-07  3.02443489e-06  1.67134407e-05  3.09549278e-04
  7.71897821e-05 -2.99829442e-04 -2.82578002e-06 -4.09540646e-05  1.06635438e-05
  5.52374845e-05  1.84333041e-06  7.76389587e-06 -1.77651969e-06 -3.56895655e-06