Generated by Psi4
     FORCE                           RHF                       TESTBAS
Number of atoms                            I               40
Charge                                     I                0
Multiplicity                               I                1
Number of electrons                        I              126
Number of alpha electrons                  I               63
Number of beta electrons                   I               63
Number of basis functions                  I              369
Number of independent functions            I              369
Atomic numbers                             I   N=          40
           6           6           6           6           6           6
           6           6           6           6           6           6
           1           1           1           1           1           1
           1           1           1           1           1           1
           1           1           1           7           6           6
           1           1           6           1           1           6
           1           1           1           1
Nuclear charges                            R   N=          40
  6.00000000e+00  6.00000000e+00  6.00000000e+00  6.00000000e+00  6.00000000e+00
  6.00000000e+00  6.00000000e+00  6.00000000e+00  6.00000000e+00  6.00000000e+00
  6.00000000e+00  6.00000000e+00  1.00000000e+00  1.00000000e+00  1.00000000e+00
  1.00000000e+00  1.00000000e+00  1.00000000e+00  1.00000000e+00  1.00000000e+00
  1.00000000e+00  1.00000000e+00  1.00000000e+00  1.00000000e+00  1.00000000e+00
  1.00000000e+00  1.00000000e+00  7.00000000e+00  6.00000000e+00  6.00000000e+00
  1.00000000e+00  1.00000000e+00  6.00000000e+00  1.00000000e+00  1.00000000e+00
  6.00000000e+00  1.00000000e+00  1.00000000e+00  1.00000000e+00  1.00000000e+00
Current cartesian coordinates              R   N=         120
 -6.69543270e+00 -1.31216944e+00 -7.70210361e-01 -5.06475830e+00 -2.60050170e+00
  1.24959499e+00 -2.32628681e+00 -2.95399300e+00  3.50559461e-01 -1.00672147e+00
 -4.48828908e-01 -4.44708964e-01  3.15169752e+00 -3.00861764e+00 -6.39534211e-01
  1.67079508e+00 -9.84637107e-01 -1.52334495e+00  5.60015914e+00 -3.43688554e+00
 -1.53334842e+00  6.65594073e+00 -1.84164965e+00 -3.34954615e+00 -5.47186160e+00
  1.16756866e+00 -1.63755726e+00 -2.72790485e+00  7.64465553e-01 -2.49813798e+00
  2.77953385e+00  5.99340665e-01 -3.34915192e+00  5.22654810e+00  1.83459296e-01
 -4.25211039e+00 -6.55483563e+00  1.99719659e+00 -3.20219836e+00 -5.51271332e+00
  2.53611232e+00 -8.00515950e-02 -2.29972543e+00 -4.21565855e+00 -1.29869128e+00
 -1.25611286e+00 -3.92606581e+00  1.82782125e+00 -6.89975257e+00 -2.58566010e+00
 -2.40347799e+00 -8.60880603e+00 -9.64170894e-01 -4.61336840e-02  6.00878437e+00
  1.44864912e+00 -5.67037133e+00  6.67709449e+00 -5.02905827e+00 -8.05835222e-01
 -5.85797843e+00 -4.45464639e+00  1.74169908e+00 -5.08113256e+00 -1.45637715e+00
  2.97908199e+00  8.55749967e+00 -2.17324986e+00 -4.05244636e+00  1.73052959e+00
  2.18795988e+00 -4.10922129e+00  2.39977867e+00 -4.30058195e+00  7.63017025e-01
 -2.70093398e+00 -4.96243497e-01 -4.14813833e+00 -1.95754657e+00  2.56871565e+00
 -3.14884885e+00 -9.02392317e-01  1.26825650e+00  1.78485715e+00  4.06070411e-01
  3.74840280e-01  4.06440683e+00  3.23105271e-01  2.66572056e+00  5.86340598e+00
  2.38799884e+00 -1.55512383e-01  3.66919784e+00 -5.40678220e-01 -1.27921556e+00
  4.86605210e+00  2.66017283e-02  4.98545761e+00  4.08970618e+00  2.03434689e+00
  2.76812279e+00  7.02309712e+00 -1.28884464e+00  2.52185907e+00  7.15286137e+00
  3.36956523e-02  3.85356913e+00  1.40861172e+00  1.54550240e+00  6.37103485e+00
  4.32821446e+00 -1.76292356e+00  5.95755787e+00  4.45711358e+00  1.97029969e+00
  3.87813565e+00  6.23512480e-01 -1.18538482e+00  4.90815386e+00  1.13855105e-01
Integer atomic weights                     I   N=          40
          12          12          12          12          12          12
          12          12          12          12          12          12
           1           1           1           1           1           1
           1           1           1           1           1           1
           1           1           1          14          12          12
           1           1          12           1           1          12
           1           1           1           1
Real atomic weights                        R   N=          40
  1.20000000e+01  1.20000000e+01  1.20000000e+01  1.20000000e+01  1.20000000e+01
  1.20000000e+01  1.20000000e+01  1.20000000e+01  1.20000000e+01  1.20000000e+01
  1.20000000e+01  1.20000000e+01  1.00782503e+00  1.00782503e+00  1.00782503e+00
  1.00782503e+00  1.00782503e+00  1.00782503e+00  1.00782503e+00  1.00782503e+00
  1.00782503e+00  1.00782503e+00  1.00782503e+00  1.00782503e+00  1.00782503e+00
  1.00782503e+00  1.00782503e+00  1.40030740e+01  1.20000000e+01  1.20000000e+01
  1.00782503e+00  1.00782503e+00  1.20000000e+01  1.00782503e+00  1.00782503e+00
  1.20000000e+01  1.00782503e+00  1.00782503e+00  1.00782503e+00  1.00782503e+00
Number of primitive shells                 I              381
Number of contracted shells                I              182
Pure/Cartesian d shells                    I                1
Pure/Cartesian f shells                    I                1
Highest angular momentum                   I                2
Largest degree of contraction              I                6
Shell types                                I   N=         182
           0           0           1           0           1           2
           0           1           0           0           1           0
           1           2           0           1           0           0
           1           0           1           2           0           1
           0           0           1           0           1           2
           0           1           0           0           1           0
           1           2           0           1           0           0
           1           0           1           2           0           1
           0           0           1           0           1           2
           0           1           0           0           1           0
           1           2           0           1           0           0
           1           0           1           2           0           1
           0           0           1           0           1           2
           0           1           0           0           1           0
           1           2           0           1           0           0
           1           0           1           2           0           1
           0           0           0           0           0           0
           0           0           0           0           0           0
           0           0           0           0           0           0
           0           0           0           0           0           0
           0           0           0           0           0           0
           0           0           1           0           1           2
           0           1           0           0           1           0
           1           2           0           1           0           0
           1           0           1           2           0           1
           0           0           0           0           0           0
           1           0           1           2           0           1
           0           0           0           0           0           0
           1           0           1           2           0           1
           0           0           0           0           0           0
           0           0
Number of primitives per shell             I   N=         182
           6           3           3           1           1           1
           1           1           6           3           3           1
           1           1           1           1           6           3
           3           1           1           1           1           1
           6           3           3           1           1           1
           1           1           6           3           3           1
           1           1           1           1           6           3
           3           1           1           1           1           1
           6           3           3           1           1           1
           1           1           6           3           3           1
           1           1           1           1           6           3
           3           1           1           1           1           1
           6           3           3           1           1           1
           1           1           6           3           3           1
           1           1           1           1           6           3
           3           1           1           1           1           1
           3           1           3           1           3           1
           3           1           3           1           3           1
           3           1           3           1           3           1
           3           1           3           1           3           1
           3           1           3           1           3           1
           6           3           3           1           1           1
           1           1           6           3           3           1
           1           1           1           1           6           3
           3           1           1           1           1           1
           3           1           3           1           6           3
           3           1           1           1           1           1
           3           1           3           1           6           3
           3           1           1           1           1           1
           3           1           3           1           3           1
           3           1
Shell to atom map                          I   N=         182
           1           1           1           1           1           1
           1           1           2           2           2           2
           2           2           2           2           3           3
           3           3           3           3           3           3
           4           4           4           4           4           4
           4           4           5           5           5           5
           5           5           5           5           6           6
           6           6           6           6           6           6
           7           7           7           7           7           7
           7           7           8           8           8           8
           8           8           8           8           9           9
           9           9           9           9           9           9
          10          10          10          10          10          10
          10          10          11          11          11          11
          11          11          11          11          12          12
          12          12          12          12          12          12
          13          13          14          14          15          15
          16          16          17          17          18          18
          19          19          20          20          21          21
          22          22          23          23          24          24
          25          25          26          26          27          27
          28          28          28          28          28          28
          28          28          29          29          29          29
          29          29          29          29          30          30
          30          30          30          30          30          30
          31          31          32          32          33          33
          33          33          33          33          33          33
          34          34          35          35          36          36
          36          36          36          36          36          36
          37          37          38          38          39          39
          40          40
Primitive exponents                        R   N=         381
  3.04752490e+03  4.57369510e+02  1.03948690e+02  2.92101550e+01  9.28666300e+00
  3.16392700e+00  7.86827240e+00  1.88128850e+00  5.44249300e-01  7.86827240e+00
  1.88128850e+00  5.44249300e-01  1.68714400e-01  1.68714400e-01  8.00000000e-01
  4.38000000e-02  4.38000000e-02  3.04752490e+03  4.57369510e+02  1.03948690e+02
  2.92101550e+01  9.28666300e+00  3.16392700e+00  7.86827240e+00  1.88128850e+00
  5.44249300e-01  7.86827240e+00  1.88128850e+00  5.44249300e-01  1.68714400e-01
  1.68714400e-01  8.00000000e-01  4.38000000e-02  4.38000000e-02  3.04752490e+03
  4.57369510e+02  1.03948690e+02  2.92101550e+01  9.28666300e+00  3.16392700e+00
  7.86827240e+00  1.88128850e+00  5.44249300e-01  7.86827240e+00  1.88128850e+00
  5.44249300e-01  1.68714400e-01  1.68714400e-01  8.00000000e-01  4.38000000e-02
  4.38000000e-02  3.04752490e+03  4.57369510e+02  1.03948690e+02  2.92101550e+01
  9.28666300e+00  3.16392700e+00  7.86827240e+00  1.88128850e+00  5.44249300e-01
  7.86827240e+00  1.88128850e+00  5.44249300e-01  1.68714400e-01  1.68714400e-01
  8.00000000e-01  4.38000000e-02  4.38000000e-02  3.04752490e+03  4.57369510e+02
  1.03948690e+02  2.92101550e+01  9.28666300e+00  3.16392700e+00  7.86827240e+00
  1.88128850e+00  5.44249300e-01  7.86827240e+00  1.88128850e+00  5.44249300e-01
  1.68714400e-01  1.68714400e-01  8.00000000e-01  4.38000000e-02  4.38000000e-02
  3.04752490e+03  4.57369510e+02  1.03948690e+02  2.92101550e+01  9.28666300e+00
  3.16392700e+00  7.86827240e+00  1.88128850e+00  5.44249300e-01  7.86827240e+00
  1.88128850e+00  5.44249300e-01  1.68714400e-01  1.68714400e-01  8.00000000e-01
  4.38000000e-02  4.38000000e-02  3.04752490e+03  4.57369510e+02  1.03948690e+02
  2.92101550e+01  9.28666300e+00  3.16392700e+00  7.86827240e+00  1.88128850e+00
  5.44249300e-01  7.86827240e+00  1.88128850e+00  5.44249300e-01  1.68714400e-01
  1.68714400e-01  8.00000000e-01  4.38000000e-02  4.38000000e-02  3.04752490e+03
  4.57369510e+02  1.03948690e+02  2.92101550e+01  9.28666300e+00  3.16392700e+00
  7.86827240e+00  1.88128850e+00  5.44249300e-01  7.86827240e+00  1.88128850e+00
  5.44249300e-01  1.68714400e-01  1.68714400e-01  8.00000000e-01  4.38000000e-02
  4.38000000e-02  3.04752490e+03  4.57369510e+02  1.03948690e+02  2.92101550e+01
  9.28666300e+00  3.16392700e+00  7.86827240e+00  1.88128850e+00  5.44249300e-01
  7.86827240e+00  1.88128850e+00  5.44249300e-01  1.68714400e-01  1.68714400e-01
  8.00000000e-01  4.38000000e-02  4.38000000e-02  3.04752490e+03  4.57369510e+02
  1.03948690e+02  2.92101550e+01  9.28666300e+00  3.16392700e+00  7.86827240e+00
  1.88128850e+00  5.44249300e-01  7.86827240e+00  1.88128850e+00  5.44249300e-01
  1.68714400e-01  1.68714400e-01  8.00000000e-01  4.38000000e-02  4.38000000e-02
  3.04752490e+03  4.57369510e+02  1.03948690e+02  2.92101550e+01  9.28666300e+00
  3.16392700e+00  7.86827240e+00  1.88128850e+00  5.44249300e-01  7.86827240e+00
  1.88128850e+00  5.44249300e-01  1.68714400e-01  1.68714400e-01  8.00000000e-01
  4.38000000e-02  4.38000000e-02  3.04752490e+03  4.57369510e+02  1.03948690e+02
  2.92101550e+01  9.28666300e+00  3.16392700e+00  7.86827240e+00  1.88128850e+00
  5.44249300e-01  7.86827240e+00  1.88128850e+00  5.44249300e-01  1.68714400e-01
  1.68714400e-01  8.00000000e-01  4.38000000e-02  4.38000000e-02  1.87311370e+01
  2.82539370e+00  6.40121700e-01  1.61277800e-01  1.87311370e+01  2.82539370e+00
  6.40121700e-01  1.61277800e-01  1.87311370e+01  2.82539370e+00  6.40121700e-01
  1.61277800e-01  1.87311370e+01  2.82539370e+00  6.40121700e-01  1.61277800e-01
  1.87311370e+01  2.82539370e+00  6.40121700e-01  1.61277800e-01  1.87311370e+01
  2.82539370e+00  6.40121700e-01  1.61277800e-01  1.87311370e+01  2.82539370e+00
  6.40121700e-01  1.61277800e-01  1.87311370e+01  2.82539370e+00  6.40121700e-01
  1.61277800e-01  1.87311370e+01  2.82539370e+00  6.40121700e-01  1.61277800e-01
  1.87311370e+01  2.82539370e+00  6.40121700e-01  1.61277800e-01  1.87311370e+01
  2.82539370e+00  6.40121700e-01  1.61277800e-01  1.87311370e+01  2.82539370e+00
  6.40121700e-01  1.61277800e-01  1.87311370e+01  2.82539370e+00  6.40121700e-01
  1.61277800e-01  1.87311370e+01  2.82539370e+00  6.40121700e-01  1.61277800e-01
  1.87311370e+01  2.82539370e+00  6.40121700e-01  1.61277800e-01  4.17351100e+03
  6.27457900e+02  1.42902100e+02  4.02343300e+01  1.28202100e+01  4.39043700e+00
  1.16263580e+01  2.71628000e+00  7.72218000e-01  1.16263580e+01  2.71628000e+00
  7.72218000e-01  2.12031300e-01  2.12031300e-01  8.00000000e-01  6.39000000e-02
  6.39000000e-02  3.04752490e+03  4.57369510e+02  1.03948690e+02  2.92101550e+01
  9.28666300e+00  3.16392700e+00  7.86827240e+00  1.88128850e+00  5.44249300e-01
  7.86827240e+00  1.88128850e+00  5.44249300e-01  1.68714400e-01  1.68714400e-01
  8.00000000e-01  4.38000000e-02  4.38000000e-02  3.04752490e+03  4.57369510e+02
  1.03948690e+02  2.92101550e+01  9.28666300e+00  3.16392700e+00  7.86827240e+00
  1.88128850e+00  5.44249300e-01  7.86827240e+00  1.88128850e+00  5.44249300e-01
  1.68714400e-01  1.68714400e-01  8.00000000e-01  4.38000000e-02  4.38000000e-02
  1.87311370e+01  2.82539370e+00  6.40121700e-01  1.61277800e-01  1.87311370e+01
  2.82539370e+00  6.40121700e-01  1.61277800e-01  3.04752490e+03  4.57369510e+02
  1.03948690e+02  2.92101550e+01  9.28666300e+00  3.16392700e+00  7.86827240e+00
  1.88128850e+00  5.44249300e-01  7.86827240e+00  1.88128850e+00  5.44249300e-01
  1.68714400e-01  1.68714400e-01  8.00000000e-01  4.38000000e-02  4.38000000e-02
  1.87311370e+01  2.82539370e+00  6.40121700e-01  1.61277800e-01  1.87311370e+01
  2.82539370e+00  6.40121700e-01  1.61277800e-01  3.04752490e+03  4.57369510e+02
  1.03948690e+02  2.92101550e+01  9.28666300e+00  3.16392700e+00  7.86827240e+00
  1.88128850e+00  5.44249300e-01  7.86827240e+00  1.88128850e+00  5.44249300e-01
  1.68714400e-01  1.68714400e-01  8.00000000e-01  4.38000000e-02  4.38000000e-02
  1.87311370e+01  2.82539370e+00  6.40121700e-01  1.61277800e-01  1.87311370e+01
  2.82539370e+00  6.40121700e-01  1.61277800e-01  1.87311370e+01  2.82539370e+00
  6.40121700e-01  1.61277800e-01  1.87311370e+01  2.82539370e+00  6.40121700e-01
  1.61277800e-01
Contraction coefficients                   R   N=         381
  1.83470016e-03  1.40373012e-02  6.88426061e-02  2.32184421e-01  4.67941342e-01
  3.62312032e-01 -1.19332409e-01 -1.60854212e-01  1.14345648e+00  6.89990956e-02
  3.16423980e-01  7.44308252e-01  1.00000000e+00  1.00000000e+00  1.00000000e+00
  1.00000000e+00  1.00000000e+00  1.83470016e-03  1.40373012e-02  6.88426061e-02
  2.32184421e-01  4.67941342e-01  3.62312032e-01 -1.19332409e-01 -1.60854212e-01
  1.14345648e+00  6.89990956e-02  3.16423980e-01  7.44308252e-01  1.00000000e+00
  1.00000000e+00  1.00000000e+00  1.00000000e+00  1.00000000e+00  1.83470016e-03
  1.40373012e-02  6.88426061e-02  2.32184421e-01  4.67941342e-01  3.62312032e-01
 -1.19332409e-01 -1.60854212e-01  1.14345648e+00  6.89990956e-02  3.16423980e-01
  7.44308252e-01  1.00000000e+00  1.00000000e+00  1.00000000e+00  1.00000000e+00
  1.00000000e+00  1.83470016e-03  1.40373012e-02  6.88426061e-02  2.32184421e-01
  4.67941342e-01  3.62312032e-01 -1.19332409e-01 -1.60854212e-01  1.14345648e+00
  6.89990956e-02  3.16423980e-01  7.44308252e-01  1.00000000e+00  1.00000000e+00
  1.00000000e+00  1.00000000e+00  1.00000000e+00  1.83470016e-03  1.40373012e-02
  6.88426061e-02  2.32184421e-01  4.67941342e-01  3.62312032e-01 -1.19332409e-01
 -1.60854212e-01  1.14345648e+00  6.89990956e-02  3.16423980e-01  7.44308252e-01
  1.00000000e+00  1.00000000e+00  1.00000000e+00  1.00000000e+00  1.00000000e+00
  1.83470016e-03  1.40373012e-02  6.88426061e-02  2.32184421e-01  4.67941342e-01
  3.62312032e-01 -1.19332409e-01 -1.60854212e-01  1.14345648e+00  6.89990956e-02
  3.16423980e-01  7.44308252e-01  1.00000000e+00  1.00000000e+00  1.00000000e+00
  1.00000000e+00  1.00000000e+00  1.83470016e-03  1.40373012e-02  6.88426061e-02
  2.32184421e-01  4.67941342e-01  3.62312032e-01 -1.19332409e-01 -1.60854212e-01
  1.14345648e+00  6.89990956e-02  3.16423980e-01  7.44308252e-01  1.00000000e+00
  1.00000000e+00  1.00000000e+00  1.00000000e+00  1.00000000e+00  1.83470016e-03
  1.40373012e-02  6.88426061e-02  2.32184421e-01  4.67941342e-01  3.62312032e-01
 -1.19332409e-01 -1.60854212e-01  1.14345648e+00  6.89990956e-02  3.16423980e-01
  7.44308252e-01  1.00000000e+00  1.00000000e+00  1.00000000e+00  1.00000000e+00
  1.00000000e+00  1.83470016e-03  1.40373012e-02  6.88426061e-02  2.32184421e-01
  4.67941342e-01  3.62312032e-01 -1.19332409e-01 -1.60854212e-01  1.14345648e+00
  6.89990956e-02  3.16423980e-01  7.44308252e-01  1.00000000e+00  1.00000000e+00
  1.00000000e+00  1.00000000e+00  1.00000000e+00  1.83470016e-03  1.40373012e-02
  6.88426061e-02  2.32184421e-01  4.67941342e-01  3.62312032e-01 -1.19332409e-01
 -1.60854212e-01  1.14345648e+00  6.89990956e-02  3.16423980e-01  7.44308252e-01
  1.00000000e+00  1.00000000e+00  1.00000000e+00  1.00000000e+00  1.00000000e+00
  1.83470016e-03  1.40373012e-02  6.88426061e-02  2.32184421e-01  4.67941342e-01
  3.62312032e-01 -1.19332409e-01 -1.60854212e-01  1.14345648e+00  6.89990956e-02
  3.16423980e-01  7.44308252e-01  1.00000000e+00  1.00000000e+00  1.00000000e+00
  1.00000000e+00  1.00000000e+00  1.83470016e-03  1.40373012e-02  6.88426061e-02
  2.32184421e-01  4.67941342e-01  3.62312032e-01 -1.19332409e-01 -1.60854212e-01
  1.14345648e+00  6.89990956e-02  3.16423980e-01  7.44308252e-01  1.00000000e+00
  1.00000000e+00  1.00000000e+00  1.00000000e+00  1.00000000e+00  3.34945995e-02
  2.34726947e-01  8.13757318e-01  1.00000000e+00  3.34945995e-02  2.34726947e-01
  8.13757318e-01  1.00000000e+00  3.34945995e-02  2.34726947e-01  8.13757318e-01
  1.00000000e+00  3.34945995e-02  2.34726947e-01  8.13757318e-01  1.00000000e+00
  3.34945995e-02  2.34726947e-01  8.13757318e-01  1.00000000e+00  3.34945995e-02
  2.34726947e-01  8.13757318e-01  1.00000000e+00  3.34945995e-02  2.34726947e-01
  8.13757318e-01  1.00000000e+00  3.34945995e-02  2.34726947e-01  8.13757318e-01
  1.00000000e+00  3.34945995e-02  2.34726947e-01  8.13757318e-01  1.00000000e+00
  3.34945995e-02  2.34726947e-01  8.13757318e-01  1.00000000e+00  3.34945995e-02
  2.34726947e-01  8.13757318e-01  1.00000000e+00  3.34945995e-02  2.34726947e-01
  8.13757318e-01  1.00000000e+00  3.34945995e-02  2.34726947e-01  8.13757318e-01
  1.00000000e+00  3.34945995e-02  2.34726947e-01  8.13757318e-01  1.00000000e+00
  3.34945995e-02  2.34726947e-01  8.13757318e-01  1.00000000e+00  1.83479944e-03
  1.39949958e-02  6.85869792e-02  2.32240930e-01  4.69069858e-01  3.60454891e-01
 -1.14961023e-01 -1.69118034e-01  1.14585223e+00  6.75800232e-02  3.23907111e-01
  7.40895255e-01  1.00000000e+00  1.00000000e+00  1.00000000e+00  1.00000000e+00
  1.00000000e+00  1.83470016e-03  1.40373012e-02  6.88426061e-02  2.32184421e-01
  4.67941342e-01  3.62312032e-01 -1.19332409e-01 -1.60854212e-01  1.14345648e+00
  6.89990956e-02  3.16423980e-01  7.44308252e-01  1.00000000e+00  1.00000000e+00
  1.00000000e+00  1.00000000e+00  1.00000000e+00  1.83470016e-03  1.40373012e-02
  6.88426061e-02  2.32184421e-01  4.67941342e-01  3.62312032e-01 -1.19332409e-01
 -1.60854212e-01  1.14345648e+00  6.89990956e-02  3.16423980e-01  7.44308252e-01
  1.00000000e+00  1.00000000e+00  1.00000000e+00  1.00000000e+00  1.00000000e+00
  3.34945995e-02  2.34726947e-01  8.13757318e-01  1.00000000e+00  3.34945995e-02
  2.34726947e-01  8.13757318e-01  1.00000000e+00  1.83470016e-03  1.40373012e-02
  6.88426061e-02  2.32184421e-01  4.67941342e-01  3.62312032e-01 -1.19332409e-01
 -1.60854212e-01  1.14345648e+00  6.89990956e-02  3.16423980e-01  7.44308252e-01
  1.00000000e+00  1.00000000e+00  1.00000000e+00  1.00000000e+00  1.00000000e+00
  3.34945995e-02  2.34726947e-01  8.13757318e-01  1.00000000e+00  3.34945995e-02
  2.34726947e-01  8.13757318e-01  1.00000000e+00  1.83470016e-03  1.40373012e-02
  6.88426061e-02  2.32184421e-01  4.67941342e-01  3.62312032e-01 -1.19332409e-01
 -1.60854212e-01  1.14345648e+00  6.89990956e-02  3.16423980e-01  7.44308252e-01
  1.00000000e+00  1.00000000e+00  1.00000000e+00  1.00000000e+00  1.00000000e+00
  3.34945995e-02  2.34726947e-01  8.13757318e-01  1.00000000e+00  3.34945995e-02
  2.34726947e-01  8.13757318e-01  1.00000000e+00  3.34945995e-02  2.34726947e-01
  8.13757318e-01  1.00000000e+00  3.34945995e-02  2.34726947e-01  8.13757318e-01
  1.00000000e+00
Coordinates of each shell                  R   N=         546
 -6.69543270e+00 -1.31216944e+00 -7.70210361e-01 -6.69543270e+00 -1.31216944e+00
 -7.70210361e-01 -6.69543270e+00 -1.31216944e+00 -7.70210361e-01 -6.69543270e+00
 -1.31216944e+00 -7.70210361e-01 -6.69543270e+00 -1.31216944e+00 -7.70210361e-01
 -6.69543270e+00 -1.31216944e+00 -7.70210361e-01 -6.69543270e+00 -1.31216944e+00
 -7.70210361e-01 -6.69543270e+00 -1.31216944e+00 -7.70210361e-01 -5.06475830e+00
 -2.60050170e+00  1.24959499e+00 -5.06475830e+00 -2.60050170e+00  1.24959499e+00
 -5.06475830e+00 -2.60050170e+00  1.24959499e+00 -5.06475830e+00 -2.60050170e+00
  1.24959499e+00 -5.06475830e+00 -2.60050170e+00  1.24959499e+00 -5.06475830e+00
 -2.60050170e+00  1.24959499e+00 -5.06475830e+00 -2.60050170e+00  1.24959499e+00
 -5.06475830e+00 -2.60050170e+00  1.24959499e+00 -2.32628681e+00 -2.95399300e+00
  3.50559461e-01 -2.32628681e+00 -2.95399300e+00  3.50559461e-01 -2.32628681e+00
 -2.95399300e+00  3.50559461e-01 -2.32628681e+00 -2.95399300e+00  3.50559461e-01
 -2.32628681e+00 -2.95399300e+00  3.50559461e-01 -2.32628681e+00 -2.95399300e+00
  3.50559461e-01 -2.32628681e+00 -2.95399300e+00  3.50559461e-01 -2.32628681e+00
 -2.95399300e+00  3.50559461e-01 -1.00672147e+00 -4.48828908e-01 -4.44708964e-01
 -1.00672147e+00 -4.48828908e-01 -4.44708964e-01 -1.00672147e+00 -4.48828908e-01
 -4.44708964e-01 -1.00672147e+00 -4.48828908e-01 -4.44708964e-01 -1.00672147e+00
 -4.48828908e-01 -4.44708964e-01 -1.00672147e+00 -4.48828908e-01 -4.44708964e-01
 -1.00672147e+00 -4.48828908e-01 -4.44708964e-01 -1.00672147e+00 -4.48828908e-01
 -4.44708964e-01  3.15169752e+00 -3.00861764e+00 -6.39534211e-01  3.15169752e+00
 -3.00861764e+00 -6.39534211e-01  3.15169752e+00 -3.00861764e+00 -6.39534211e-01
  3.15169752e+00 -3.00861764e+00 -6.39534211e-01  3.15169752e+00 -3.00861764e+00
 -6.39534211e-01  3.15169752e+00 -3.00861764e+00 -6.39534211e-01  3.15169752e+00
 -3.00861764e+00 -6.39534211e-01  3.15169752e+00 -3.00861764e+00 -6.39534211e-01
  1.67079508e+00 -9.84637107e-01 -1.52334495e+00  1.67079508e+00 -9.84637107e-01
 -1.52334495e+00  1.67079508e+00 -9.84637107e-01 -1.52334495e+00  1.67079508e+00
 -9.84637107e-01 -1.52334495e+00  1.67079508e+00 -9.84637107e-01 -1.52334495e+00
  1.67079508e+00 -9.84637107e-01 -1.52334495e+00  1.67079508e+00 -9.84637107e-01
 -1.52334495e+00  1.67079508e+00 -9.84637107e-01 -1.52334495e+00  5.60015914e+00
 -3.43688554e+00 -1.53334842e+00  5.60015914e+00 -3.43688554e+00 -1.53334842e+00
  5.60015914e+00 -3.43688554e+00 -1.53334842e+00  5.60015914e+00 -3.43688554e+00
 -1.53334842e+00  5.60015914e+00 -3.43688554e+00 -1.53334842e+00  5.60015914e+00
 -3.43688554e+00 -1.53334842e+00  5.60015914e+00 -3.43688554e+00 -1.53334842e+00
  5.60015914e+00 -3.43688554e+00 -1.53334842e+00  6.65594073e+00 -1.84164965e+00
 -3.34954615e+00  6.65594073e+00 -1.84164965e+00 -3.34954615e+00  6.65594073e+00
 -1.84164965e+00 -3.34954615e+00  6.65594073e+00 -1.84164965e+00 -3.34954615e+00
  6.65594073e+00 -1.84164965e+00 -3.34954615e+00  6.65594073e+00 -1.84164965e+00
 -3.34954615e+00  6.65594073e+00 -1.84164965e+00 -3.34954615e+00  6.65594073e+00
 -1.84164965e+00 -3.34954615e+00 -5.47186160e+00  1.16756866e+00 -1.63755726e+00
 -5.47186160e+00  1.16756866e+00 -1.63755726e+00 -5.47186160e+00  1.16756866e+00
 -1.63755726e+00 -5.47186160e+00  1.16756866e+00 -1.63755726e+00 -5.47186160e+00
  1.16756866e+00 -1.63755726e+00 -5.47186160e+00  1.16756866e+00 -1.63755726e+00
 -5.47186160e+00  1.16756866e+00 -1.63755726e+00 -5.47186160e+00  1.16756866e+00
 -1.63755726e+00 -2.72790485e+00  7.64465553e-01 -2.49813798e+00 -2.72790485e+00
  7.64465553e-01 -2.49813798e+00 -2.72790485e+00  7.64465553e-01 -2.49813798e+00
 -2.72790485e+00  7.64465553e-01 -2.49813798e+00 -2.72790485e+00  7.64465553e-01
 -2.49813798e+00 -2.72790485e+00  7.64465553e-01 -2.49813798e+00 -2.72790485e+00
  7.64465553e-01 -2.49813798e+00 -2.72790485e+00  7.64465553e-01 -2.49813798e+00
  2.77953385e+00  5.99340665e-01 -3.34915192e+00  2.77953385e+00  5.99340665e-01
 -3.34915192e+00  2.77953385e+00  5.99340665e-01 -3.34915192e+00  2.77953385e+00
  5.99340665e-01 -3.34915192e+00  2.77953385e+00  5.99340665e-01 -3.34915192e+00
  2.77953385e+00  5.99340665e-01 -3.34915192e+00  2.77953385e+00  5.99340665e-01
 -3.34915192e+00  2.77953385e+00  5.99340665e-01 -3.34915192e+00  5.22654810e+00
  1.83459296e-01 -4.25211039e+00  5.22654810e+00  1.83459296e-01 -4.25211039e+00
  5.22654810e+00  1.83459296e-01 -4.25211039e+00  5.22654810e+00  1.83459296e-01
 -4.25211039e+00  5.22654810e+00  1.83459296e-01 -4.25211039e+00  5.22654810e+00
  1.83459296e-01 -4.25211039e+00  5.22654810e+00  1.83459296e-01 -4.25211039e+00
  5.22654810e+00  1.83459296e-01 -4.25211039e+00 -6.55483563e+00  1.99719659e+00
 -3.20219836e+00 -6.55483563e+00  1.99719659e+00 -3.20219836e+00 -5.51271332e+00
  2.53611232e+00 -8.00515950e-02 -5.51271332e+00  2.53611232e+00 -8.00515950e-02
 -2.29972543e+00 -4.21565855e+00 -1.29869128e+00 -2.29972543e+00 -4.21565855e+00
 -1.29869128e+00 -1.25611286e+00 -3.92606581e+00  1.82782125e+00 -1.25611286e+00
 -3.92606581e+00  1.82782125e+00 -6.89975257e+00 -2.58566010e+00 -2.40347799e+00