Generated by Psi4
     FORCE                           RHF                       TESTBAS
Number of atoms                            I               31
Charge                                     I                0
Multiplicity                               I                1
Number of electrons                        I              110
Number of alpha electrons                  I               55
Number of beta electrons                   I               55
Number of basis functions                  I              317
Number of independent functions            I              317
Atomic numbers                             I   N=          31
           6           6           6           6           6           6
           7           6           6           1           1           6
           6           1           1           7           1           1
           6           6           1           1           1           1
           1           1           8           1           1           1
           1
Nuclear charges                            R   N=          31
  6.00000000e+00  6.00000000e+00  6.00000000e+00  6.00000000e+00  6.00000000e+00
  6.00000000e+00  7.00000000e+00  6.00000000e+00  6.00000000e+00  1.00000000e+00
  1.00000000e+00  6.00000000e+00  6.00000000e+00  1.00000000e+00  1.00000000e+00
  7.00000000e+00  1.00000000e+00  1.00000000e+00  6.00000000e+00  6.00000000e+00
  1.00000000e+00  1.00000000e+00  1.00000000e+00  1.00000000e+00  1.00000000e+00
  1.00000000e+00  8.00000000e+00  1.00000000e+00  1.00000000e+00  1.00000000e+00
  1.00000000e+00
Current cartesian coordinates              R   N=          93
 -5.07713623e-01 -1.26847229e+00 -1.54075781e+00  3.19402435e+00  1.51553376e+00
  3.55167161e-01  1.54351275e+00  5.52062117e-01 -1.51143231e+00  5.01525673e+00
  3.29149049e+00 -3.03222139e-01  5.24821904e+00  4.13990029e+00 -2.81464165e+00
 -1.32508218e+00 -1.38538806e+00 -4.00284548e+00  6.89476697e-02  2.42720383e-01
 -5.49404366e+00  1.84930003e+00  1.45790320e+00 -4.02686157e+00  3.67829423e+00
  3.24314182e+00 -4.72102548e+00 -1.44981093e-01  4.72021868e-01 -7.37417987e+00
 -2.81107984e+00 -2.53045215e+00 -4.81725619e+00 -1.64728414e+00 -2.75010742e+00
  6.09627263e-01 -3.44308430e+00 -1.16982027e+00  2.27885571e+00 -1.51922126e-01
 -3.62581825e+00  1.75641428e+00 -2.74600856e+00 -4.33206099e+00 -1.55841028e-01
 -4.80483463e+00 -2.67121440e+00  4.15966190e+00 -4.84727325e+00 -2.97105014e-01
  1.03221400e+00 -2.40356642e+00  4.15662297e-01  3.18216054e+00 -3.16955738e+00
 -3.61904526e+00  6.16668299e+00 -6.92468895e+00 -1.25702414e+00  5.21545870e+00
 -8.20072307e+00 -6.67643567e-01  3.69633069e+00 -6.32266355e+00  4.53387239e-01
  6.26553595e+00 -7.98734168e+00 -2.46766604e+00  6.51577109e+00 -1.70150489e+00
 -4.85256970e+00  5.39426303e+00 -4.28965832e+00 -4.74389303e+00  7.49433666e+00
 -2.24054678e+00 -2.07906774e+00  7.24630841e+00  3.10513498e+00  7.71677144e-01
  2.84227213e+00  1.74460931e+00 -4.24254555e-01  3.09410612e+00  6.25891907e+00
  4.00708482e+00  1.16343820e+00  6.69524173e+00  5.52651997e+00 -3.26306508e+00
  3.86261011e+00  3.89527145e+00 -6.65932521e+00
Integer atomic weights                     I   N=          31
          12          12          12          12          12          12
          14          12          12           1           1          12
          12           1           1          14           1           1
          12          12           1           1           1           1
           1           1          15           1           1           1
           1
Real atomic weights                        R   N=          31
  1.20000000e+01  1.20000000e+01  1.20000000e+01  1.20000000e+01  1.20000000e+01
  1.20000000e+01  1.40030740e+01  1.20000000e+01  1.20000000e+01  1.00782503e+00
  1.00782503e+00  1.20000000e+01  1.20000000e+01  1.00782503e+00  1.00782503e+00
  1.40030740e+01  1.00782503e+00  1.00782503e+00  1.20000000e+01  1.20000000e+01
  1.00782503e+00  1.00782503e+00  1.00782503e+00  1.00782503e+00  1.00782503e+00
  1.00782503e+00  1.59949146e+01  1.00782503e+00  1.00782503e+00  1.00782503e+00
  1.00782503e+00
Number of primitive shells                 I              319
Number of contracted shells                I              152
Pure/Cartesian d shells                    I                1
Pure/Cartesian f shells                    I                1
Highest angular momentum                   I                2
Largest degree of contraction              I                6
Shell types                                I   N=         152
           0           0           1           0           1           2
           0           1           0           0           1           0
           1           2           0           1           0           0
           1           0           1           2           0           1
           0           0           1           0           1           2
           0           1           0           0           1           0
           1           2           0           1           0           0
           1           0           1           2           0           1
           0           0           1           0           1           2
           0           1           0           0           1           0
           1           2           0           1           0           0
           1           0           1           2           0           1
           0           0           0           0           0           0
           1           0           1           2           0           1
           0           0           1           0           1           2
           0           1           0           0           0           0
           0           0           1           0           1           2
           0           1           0           0           0           0
           0           0           1           0           1           2
           0           1           0           0           1           0
           1           2           0           1           0           0
           0           0           0           0           0           0
           0           0           0           0           0           0
           1           0           1           2           0           1
           0           0           0           0           0           0
           0           0
Number of primitives per shell             I   N=         152
           6           3           3           1           1           1
           1           1           6           3           3           1
           1           1           1           1           6           3
           3           1           1           1           1           1
           6           3           3           1           1           1
           1           1           6           3           3           1
           1           1           1           1           6           3
           3           1           1           1           1           1
           6           3           3           1           1           1
           1           1           6           3           3           1
           1           1           1           1           6           3
           3           1           1           1           1           1
           3           1           3           1           6           3
           3           1           1           1           1           1
           6           3           3           1           1           1
           1           1           3           1           3           1
           6           3           3           1           1           1
           1           1           3           1           3           1
           6           3           3           1           1           1
           1           1           6           3           3           1
           1           1           1           1           3           1
           3           1           3           1           3           1
           3           1           3           1           6           3
           3           1           1           1           1           1
           3           1           3           1           3           1
           3           1
Shell to atom map                          I   N=         152
           1           1           1           1           1           1
           1           1           2           2           2           2
           2           2           2           2           3           3
           3           3           3           3           3           3
           4           4           4           4           4           4
           4           4           5           5           5           5
           5           5           5           5           6           6
           6           6           6           6           6           6
           7           7           7           7           7           7
           7           7           8           8           8           8
           8           8           8           8           9           9
           9           9           9           9           9           9
          10          10          11          11          12          12
          12          12          12          12          12          12
          13          13          13          13          13          13
          13          13          14          14          15          15
          16          16          16          16          16          16
          16          16          17          17          18          18
          19          19          19          19          19          19
          19          19          20          20          20          20
          20          20          20          20          21          21
          22          22          23          23          24          24
          25          25          26          26          27          27
          27          27          27          27          27          27
          28          28          29          29          30          30
          31          31
Primitive exponents                        R   N=         319
  3.04752490e+03  4.57369510e+02  1.03948690e+02  2.92101550e+01  9.28666300e+00
  3.16392700e+00  7.86827240e+00  1.88128850e+00  5.44249300e-01  7.86827240e+00
  1.88128850e+00  5.44249300e-01  1.68714400e-01  1.68714400e-01  8.00000000e-01
  4.38000000e-02  4.38000000e-02  3.04752490e+03  4.57369510e+02  1.03948690e+02
  2.92101550e+01  9.28666300e+00  3.16392700e+00  7.86827240e+00  1.88128850e+00
  5.44249300e-01  7.86827240e+00  1.88128850e+00  5.44249300e-01  1.68714400e-01
  1.68714400e-01  8.00000000e-01  4.38000000e-02  4.38000000e-02  3.04752490e+03
  4.57369510e+02  1.03948690e+02  2.92101550e+01  9.28666300e+00  3.16392700e+00
  7.86827240e+00  1.88128850e+00  5.44249300e-01  7.86827240e+00  1.88128850e+00
  5.44249300e-01  1.68714400e-01  1.68714400e-01  8.00000000e-01  4.38000000e-02
  4.38000000e-02  3.04752490e+03  4.57369510e+02  1.03948690e+02  2.92101550e+01
  9.28666300e+00  3.16392700e+00  7.86827240e+00  1.88128850e+00  5.44249300e-01
  7.86827240e+00  1.88128850e+00  5.44249300e-01  1.68714400e-01  1.68714400e-01
  8.00000000e-01  4.38000000e-02  4.38000000e-02  3.04752490e+03  4.57369510e+02
  1.03948690e+02  2.92101550e+01  9.28666300e+00  3.16392700e+00  7.86827240e+00
  1.88128850e+00  5.44249300e-01  7.86827240e+00  1.88128850e+00  5.44249300e-01
  1.68714400e-01  1.68714400e-01  8.00000000e-01  4.38000000e-02  4.38000000e-02
  3.04752490e+03  4.57369510e+02  1.03948690e+02  2.92101550e+01  9.28666300e+00
  3.16392700e+00  7.86827240e+00  1.88128850e+00  5.44249300e-01  7.86827240e+00
  1.88128850e+00  5.44249300e-01  1.68714400e-01  1.68714400e-01  8.00000000e-01
  4.38000000e-02  4.38000000e-02  4.17351100e+03  6.27457900e+02  1.42902100e+02
  4.02343300e+01  1.28202100e+01  4.39043700e+00  1.16263580e+01  2.71628000e+00
  7.72218000e-01  1.16263580e+01  2.71628000e+00  7.72218000e-01  2.12031300e-01
  2.12031300e-01  8.00000000e-01  6.39000000e-02  6.39000000e-02  3.04752490e+03
  4.57369510e+02  1.03948690e+02  2.92101550e+01  9.28666300e+00  3.16392700e+00
  7.86827240e+00  1.88128850e+00  5.44249300e-01  7.86827240e+00  1.88128850e+00
  5.44249300e-01  1.68714400e-01  1.68714400e-01  8.00000000e-01  4.38000000e-02
  4.38000000e-02  3.04752490e+03  4.57369510e+02  1.03948690e+02  2.92101550e+01
  9.28666300e+00  3.16392700e+00  7.86827240e+00  1.88128850e+00  5.44249300e-01
  7.86827240e+00  1.88128850e+00  5.44249300e-01  1.68714400e-01  1.68714400e-01
  8.00000000e-01  4.38000000e-02  4.38000000e-02  1.87311370e+01  2.82539370e+00
  6.40121700e-01  1.61277800e-01  1.87311370e+01  2.82539370e+00  6.40121700e-01
  1.61277800e-01  3.04752490e+03  4.57369510e+02  1.03948690e+02  2.92101550e+01
  9.28666300e+00  3.16392700e+00  7.86827240e+00  1.88128850e+00  5.44249300e-01
  7.86827240e+00  1.88128850e+00  5.44249300e-01  1.68714400e-01  1.68714400e-01
  8.00000000e-01  4.38000000e-02  4.38000000e-02  3.04752490e+03  4.57369510e+02
  1.03948690e+02  2.92101550e+01  9.28666300e+00  3.16392700e+00  7.86827240e+00
  1.88128850e+00  5.44249300e-01  7.86827240e+00  1.88128850e+00  5.44249300e-01
  1.68714400e-01  1.68714400e-01  8.00000000e-01  4.38000000e-02  4.38000000e-02
  1.87311370e+01  2.82539370e+00  6.40121700e-01  1.61277800e-01  1.87311370e+01
  2.82539370e+00  6.40121700e-01  1.61277800e-01  4.17351100e+03  6.27457900e+02
  1.42902100e+02  4.02343300e+01  1.28202100e+01  4.39043700e+00  1.16263580e+01
  2.71628000e+00  7.72218000e-01  1.16263580e+01  2.71628000e+00  7.72218000e-01
  2.12031300e-01  2.12031300e-01  8.00000000e-01  6.39000000e-02  6.39000000e-02
  1.87311370e+01  2.82539370e+00  6.40121700e-01  1.61277800e-01  1.87311370e+01
  2.82539370e+00  6.40121700e-01  1.61277800e-01  3.04752490e+03  4.57369510e+02
  1.03948690e+02  2.92101550e+01  9.28666300e+00  3.16392700e+00  7.86827240e+00
  1.88128850e+00  5.44249300e-01  7.86827240e+00  1.88128850e+00  5.44249300e-01
  1.68714400e-01  1.68714400e-01  8.00000000e-01  4.38000000e-02  4.38000000e-02
  3.04752490e+03  4.57369510e+02  1.03948690e+02  2.92101550e+01  9.28666300e+00
  3.16392700e+00  7.86827240e+00  1.88128850e+00  5.44249300e-01  7.86827240e+00
  1.88128850e+00  5.44249300e-01  1.68714400e-01  1.68714400e-01  8.00000000e-01
  4.38000000e-02  4.38000000e-02  1.87311370e+01  2.82539370e+00  6.40121700e-01
  1.61277800e-01  1.87311370e+01  2.82539370e+00  6.40121700e-01  1.61277800e-01
  1.87311370e+01  2.82539370e+00  6.40121700e-01  1.61277800e-01  1.87311370e+01
  2.82539370e+00  6.40121700e-01  1.61277800e-01  1.87311370e+01  2.82539370e+00
  6.40121700e-01  1.61277800e-01  1.87311370e+01  2.82539370e+00  6.40121700e-01
  1.61277800e-01  5.48467170e+03  8.25234950e+02  1.88046960e+02  5.29645000e+01
  1.68975700e+01  5.79963530e+00  1.55396160e+01  3.59993360e+00  1.01376180e+00
  1.55396160e+01  3.59993360e+00  1.01376180e+00  2.70005800e-01  2.70005800e-01
  8.00000000e-01  8.45000000e-02  8.45000000e-02  1.87311370e+01  2.82539370e+00
  6.40121700e-01  1.61277800e-01  1.87311370e+01  2.82539370e+00  6.40121700e-01
  1.61277800e-01  1.87311370e+01  2.82539370e+00  6.40121700e-01  1.61277800e-01
  1.87311370e+01  2.82539370e+00  6.40121700e-01  1.61277800e-01
Contraction coefficients                   R   N=         319
  1.83470016e-03  1.40373012e-02  6.88426061e-02  2.32184421e-01  4.67941342e-01
  3.62312032e-01 -1.19332409e-01 -1.60854212e-01  1.14345648e+00  6.89990956e-02
  3.16423980e-01  7.44308252e-01  1.00000000e+00  1.00000000e+00  1.00000000e+00
  1.00000000e+00  1.00000000e+00  1.83470016e-03  1.40373012e-02  6.88426061e-02
  2.32184421e-01  4.67941342e-01  3.62312032e-01 -1.19332409e-01 -1.60854212e-01
  1.14345648e+00  6.89990956e-02  3.16423980e-01  7.44308252e-01  1.00000000e+00
  1.00000000e+00  1.00000000e+00  1.00000000e+00  1.00000000e+00  1.83470016e-03
  1.40373012e-02  6.88426061e-02  2.32184421e-01  4.67941342e-01  3.62312032e-01
 -1.19332409e-01 -1.60854212e-01  1.14345648e+00  6.89990956e-02  3.16423980e-01
  7.44308252e-01  1.00000000e+00  1.00000000e+00  1.00000000e+00  1.00000000e+00
  1.00000000e+00  1.83470016e-03  1.40373012e-02  6.88426061e-02  2.32184421e-01
  4.67941342e-01  3.62312032e-01 -1.19332409e-01 -1.60854212e-01  1.14345648e+00
  6.89990956e-02  3.16423980e-01  7.44308252e-01  1.00000000e+00  1.00000000e+00
  1.00000000e+00  1.00000000e+00  1.00000000e+00  1.83470016e-03  1.40373012e-02
  6.88426061e-02  2.32184421e-01  4.67941342e-01  3.62312032e-01 -1.19332409e-01
 -1.60854212e-01  1.14345648e+00  6.89990956e-02  3.16423980e-01  7.44308252e-01
  1.00000000e+00  1.00000000e+00  1.00000000e+00  1.00000000e+00  1.00000000e+00
  1.83470016e-03  1.40373012e-02  6.88426061e-02  2.32184421e-01  4.67941342e-01
  3.62312032e-01 -1.19332409e-01 -1.60854212e-01  1.14345648e+00  6.89990956e-02
  3.16423980e-01  7.44308252e-01  1.00000000e+00  1.00000000e+00  1.00000000e+00
  1.00000000e+00  1.00000000e+00  1.83479944e-03  1.39949958e-02  6.85869792e-02
  2.32240930e-01  4.69069858e-01  3.60454891e-01 -1.14961023e-01 -1.69118034e-01
  1.14585223e+00  6.75800232e-02  3.23907111e-01  7.40895255e-01  1.00000000e+00
  1.00000000e+00  1.00000000e+00  1.00000000e+00  1.00000000e+00  1.83470016e-03
  1.40373012e-02  6.88426061e-02  2.32184421e-01  4.67941342e-01  3.62312032e-01
 -1.19332409e-01 -1.60854212e-01  1.14345648e+00  6.89990956e-02  3.16423980e-01
  7.44308252e-01  1.00000000e+00  1.00000000e+00  1.00000000e+00  1.00000000e+00
  1.00000000e+00  1.83470016e-03  1.40373012e-02  6.88426061e-02  2.32184421e-01
  4.67941342e-01  3.62312032e-01 -1.19332409e-01 -1.60854212e-01  1.14345648e+00
  6.89990956e-02  3.16423980e-01  7.44308252e-01  1.00000000e+00  1.00000000e+00
  1.00000000e+00  1.00000000e+00  1.00000000e+00  3.34945995e-02  2.34726947e-01
  8.13757318e-01  1.00000000e+00  3.34945995e-02  2.34726947e-01  8.13757318e-01
  1.00000000e+00  1.83470016e-03  1.40373012e-02  6.88426061e-02  2.32184421e-01
  4.67941342e-01  3.62312032e-01 -1.19332409e-01 -1.60854212e-01  1.14345648e+00
  6.89990956e-02  3.16423980e-01  7.44308252e-01  1.00000000e+00  1.00000000e+00
  1.00000000e+00  1.00000000e+00  1.00000000e+00  1.83470016e-03  1.40373012e-02
  6.88426061e-02  2.32184421e-01  4.67941342e-01  3.62312032e-01 -1.19332409e-01
 -1.60854212e-01  1.14345648e+00  6.89990956e-02  3.16423980e-01  7.44308252e-01
  1.00000000e+00  1.00000000e+00  1.00000000e+00  1.00000000e+00  1.00000000e+00
  3.34945995e-02  2.34726947e-01  8.13757318e-01  1.00000000e+00  3.34945995e-02
  2.34726947e-01  8.13757318e-01  1.00000000e+00  1.83479944e-03  1.39949958e-02
  6.85869792e-02  2.32240930e-01  4.69069858e-01  3.60454891e-01 -1.14961023e-01
 -1.69118034e-01  1.14585223e+00  6.75800232e-02  3.23907111e-01  7.40895255e-01
  1.00000000e+00  1.00000000e+00  1.00000000e+00  1.00000000e+00  1.00000000e+00
  3.34945995e-02  2.34726947e-01  8.13757318e-01  1.00000000e+00  3.34945995e-02
  2.34726947e-01  8.13757318e-01  1.00000000e+00  1.83470016e-03  1.40373012e-02
  6.88426061e-02  2.32184421e-01  4.67941342e-01  3.62312032e-01 -1.19332409e-01
 -1.60854212e-01  1.14345648e+00  6.89990956e-02  3.16423980e-01  7.44308252e-01
  1.00000000e+00  1.00000000e+00  1.00000000e+00  1.00000000e+00  1.00000000e+00
  1.83470016e-03  1.40373012e-02  6.88426061e-02  2.32184421e-01  4.67941342e-01
  3.62312032e-01 -1.19332409e-01 -1.60854212e-01  1.14345648e+00  6.89990956e-02
  3.16423980e-01  7.44308252e-01  1.00000000e+00  1.00000000e+00  1.00000000e+00
  1.00000000e+00  1.00000000e+00  3.34945995e-02  2.34726947e-01  8.13757318e-01
  1.00000000e+00  3.34945995e-02  2.34726947e-01  8.13757318e-01  1.00000000e+00
  3.34945995e-02  2.34726947e-01  8.13757318e-01  1.00000000e+00  3.34945995e-02
  2.34726947e-01  8.13757318e-01  1.00000000e+00  3.34945995e-02  2.34726947e-01
  8.13757318e-01  1.00000000e+00  3.34945995e-02  2.34726947e-01  8.13757318e-01
  1.00000000e+00  1.83109981e-03  1.39500985e-02  6.84450927e-02  2.32714275e-01
  4.70192950e-01  3.58520862e-01 -1.10777504e-01 -1.48026305e-01  1.13076704e+00
  7.08742995e-02  3.39752798e-01  7.27158595e-01  1.00000000e+00  1.00000000e+00
  1.00000000e+00  1.00000000e+00  1.00000000e+00  3.34945995e-02  2.34726947e-01
  8.13757318e-01  1.00000000e+00  3.34945995e-02  2.34726947e-01  8.13757318e-01
  1.00000000e+00  3.34945995e-02  2.34726947e-01  8.13757318e-01  1.00000000e+00
  3.34945995e-02  2.34726947e-01  8.13757318e-01  1.00000000e+00
Coordinates of each shell                  R   N=         456
 -5.07713623e-01 -1.26847229e+00 -1.54075781e+00 -5.07713623e-01 -1.26847229e+00
 -1.54075781e+00 -5.07713623e-01 -1.26847229e+00 -1.54075781e+00 -5.07713623e-01
 -1.26847229e+00 -1.54075781e+00 -5.07713623e-01 -1.26847229e+00 -1.54075781e+00
 -5.07713623e-01 -1.26847229e+00 -1.54075781e+00 -5.07713623e-01 -1.26847229e+00
 -1.54075781e+00 -5.07713623e-01 -1.26847229e+00 -1.54075781e+00  3.19402435e+00
  1.51553376e+00  3.55167161e-01  3.19402435e+00  1.51553376e+00  3.55167161e-01
  3.19402435e+00  1.51553376e+00  3.55167161e-01  3.19402435e+00  1.51553376e+00
  3.55167161e-01  3.19402435e+00  1.51553376e+00  3.55167161e-01  3.19402435e+00
  1.51553376e+00  3.55167161e-01  3.19402435e+00  1.51553376e+00  3.55167161e-01
  3.19402435e+00  1.51553376e+00  3.55167161e-01  1.54351275e+00  5.52062117e-01
 -1.51143231e+00  1.54351275e+00  5.52062117e-01 -1.51143231e+00  1.54351275e+00
  5.52062117e-01 -1.51143231e+00  1.54351275e+00  5.52062117e-01 -1.51143231e+00
  1.54351275e+00  5.52062117e-01 -1.51143231e+00  1.54351275e+00  5.52062117e-01
 -1.51143231e+00  1.54351275e+00  5.52062117e-01 -1.51143231e+00  1.54351275e+00
  5.52062117e-01 -1.51143231e+00  5.01525673e+00  3.29149049e+00 -3.03222139e-01
  5.01525673e+00  3.29149049e+00 -3.03222139e-01  5.01525673e+00  3.29149049e+00
 -3.03222139e-01  5.01525673e+00  3.29149049e+00 -3.03222139e-01  5.01525673e+00
  3.29149049e+00 -3.03222139e-01  5.01525673e+00  3.29149049e+00 -3.03222139e-01
  5.01525673e+00  3.29149049e+00 -3.03222139e-01  5.01525673e+00  3.29149049e+00
 -3.03222139e-01  5.24821904e+00  4.13990029e+00 -2.81464165e+00  5.24821904e+00
  4.13990029e+00 -2.81464165e+00  5.24821904e+00  4.13990029e+00 -2.81464165e+00
  5.24821904e+00  4.13990029e+00 -2.81464165e+00  5.24821904e+00  4.13990029e+00
 -2.81464165e+00  5.24821904e+00  4.13990029e+00 -2.81464165e+00  5.24821904e+00
  4.13990029e+00 -2.81464165e+00  5.24821904e+00  4.13990029e+00 -2.81464165e+00
 -1.32508218e+00 -1.38538806e+00 -4.00284548e+00 -1.32508218e+00 -1.38538806e+00
 -4.00284548e+00 -1.32508218e+00 -1.38538806e+00 -4.00284548e+00 -1.32508218e+00
 -1.38538806e+00 -4.00284548e+00 -1.32508218e+00 -1.38538806e+00 -4.00284548e+00
 -1.32508218e+00 -1.38538806e+00 -4.00284548e+00 -1.32508218e+00 -1.38538806e+00
 -4.00284548e+00 -1.32508218e+00 -1.38538806e+00 -4.00284548e+00  6.89476697e-02
  2.42720383e-01 -5.49404366e+00  6.89476697e-02  2.42720383e-01 -5.49404366e+00
  6.89476697e-02  2.42720383e-01 -5.49404366e+00  6.89476697e-02  2.42720383e-01
 -5.49404366e+00  6.89476697e-02  2.42720383e-01 -5.49404366e+00  6.89476697e-02
  2.42720383e-01 -5.49404366e+00  6.89476697e-02  2.42720383e-01 -5.49404366e+00
  6.89476697e-02  2.42720383e-01 -5.49404366e+00  1.84930003e+00  1.45790320e+00
 -4.02686157e+00  1.84930003e+00  1.45790320e+00 -4.02686157e+00  1.84930003e+00
  1.45790320e+00 -4.02686157e+00  1.84930003e+00  1.45790320e+00 -4.02686157e+00
  1.84930003e+00  1.45790320e+00 -4.02686157e+00  1.84930003e+00  1.45790320e+00
 -4.02686157e+00  1.84930003e+00  1.45790320e+00 -4.02686157e+00  1.84930003e+00
  1.45790320e+00 -4.02686157e+00  3.67829423e+00  3.24314182e+00 -4.72102548e+00
  3.67829423e+00  3.24314182e+00 -4.72102548e+00  3.67829423e+00  3.24314182e+00
 -4.72102548e+00  3.67829423e+00  3.24314182e+00 -4.72102548e+00  3.67829423e+00
  3.24314182e+00 -4.72102548e+00  3.67829423e+00  3.24314182e+00 -4.72102548e+00
  3.67829423e+00  3.24314182e+00 -4.72102548e+00  3.67829423e+00  3.24314182e+00
 -4.72102548e+00 -1.44981093e-01  4.72021868e-01 -7.37417987e+00 -1.44981093e-01
  4.72021868e-01 -7.37417987e+00 -2.81107984e+00 -2.53045215e+00 -4.81725619e+00
 -2.81107984e+00 -2.53045215e+00 -4.81725619e+00 -1.64728414e+00 -2.75010742e+00
  6.09627263e-01 -1.64728414e+00 -2.75010742e+00  6.09627263e-01 -1.64728414e+00
 -2.75010742e+00  6.09627263e-01 -1.64728414e+00 -2.75010742e+00  6.09627263e-01
 -1.64728414e+00 -2.75010742e+00  6.09627263e-01 -1.64728414e+00 -2.75010742e+00
  6.09627263e-01 -1.64728414e+00 -2.75010742e+00  6.09627263e-01 -1.64728414e+00
 -2.75010742e+00  6.09627263e-01 -3.44308430e+00 -1.16982027e+00  2.27885571e+00
 -3.44308430e+00 -1.16982027e+00  2.27885571e+00 -3.44308430e+00 -1.16982027e+00
  2.27885571e+00 -3.44308430e+00 -1.16982027e+00  2.27885571e+00 -3.44308430e+00
 -1.16982027e+00  2.27885571e+00 -3.44308430e+00 -1.16982027e+00  2.27885571e+00
 -3.44308430e+00 -1.16982027e+00  2.27885571e+00 -3.44308430e+00 -1.16982027e+00
  2.27885571e+00 -1.51922126e-01 -3.62581825e+00  1.75641428e+00 -1.51922126e-01
 -3.62581825e+00  1.75641428e+00 -2.74600856e+00 -4.33206099e+00 -1.55841028e-01
 -2.74600856e+00 -4.33206099e+00 -1.55841028e-01 -4.80483463e+00 -2.67121440e+00
  4.15966190e+00 -4.80483463e+00 -2.67121440e+00  4.15966190e+00 -4.80483463e+00
 -2.67121440e+00  4.15966190e+00 -4.80483463e+00 -2.67121440e+00  4.15966190e+00
 -4.80483463e+00 -2.67121440e+00  4.15966190e+00 -4.80483463e+00 -2.67121440e+00
  4.15966190e+00 -4.80483463e+00 -2.67121440e+00  4.15966190e+00 -4.80483463e+00
 -2.67121440e+00  4.15966190e+00 -4.84727325e+00 -2.97105014e-01  1.03221400e+00
 -4.84727325e+00 -2.97105014e-01  1.03221400e+00 -2.40356642e+00  4.15662297e-01
  3.18216054e+00 -2.40356642e+00  4.15662297e-01  3.18216054e+00 -3.16955738e+00
 -3.61904526e+00  6.16668299e+00 -3.16955738e+00 -3.61904526e+00  6.16668299e+00
 -3.16955738e+00 -3.61904526e+00  6.16668299e+00 -3.16955738e+00 -3.61904526e+00
  6.16668299e+00 -3.16955738e+00 -3.61904526e+00  6.16668299e+00 -3.16955738e+00
 -3.61904526e+00  6.16668299e+00 -3.16955738e+00 -3.61904526e+00  6.16668299e+00
 -3.16955738e+00 -3.61904526e+00  6.16668299e+00 -6.92468895e+00 -1.25702414e+00
  5.21545870e+00 -6.92468895e+00 -1.25702414e+00  5.21545870e+00 -6.92468895e+00
 -1.25702414e+00  5.21545870e+00 -6.92468895e+00 -1.25702414e+00  5.21545870e+00
 -6.92468895e+00 -1.25702414e+00  5.21545870e+00 -6.92468895e+00 -1.25702414e+00
  5.21545870e+00 -6.92468895e+00 -1.25702414e+00  5.21545870e+00 -6.92468895e+00
 -1.25702414e+00  5.21545870e+00 -8.20072307e+00 -6.67643567e-01  3.69633069e+00
 -8.20072307e+00 -6.67643567e-01  3.69633069e+00 -6.32266355e+00  4.53387239e-01
  6.26553595e+00 -6.32266355e+00  4.53387239e-01  6.26553595e+00 -7.98734168e+00
 -2.46766604e+00  6.51577109e+00 -7.98734168e+00 -2.46766604e+00  6.51577109e+00
 -1.70150489e+00 -4.85256970e+00  5.39426303e+00 -1.70150489e+00 -4.85256970e+00
  5.39426303e+00 -4.28965832e+00 -4.74389303e+00  7.49433666e+00 -4.28965832e+00
 -4.74389303e+00  7.49433666e+00 -2.24054678e+00 -2.07906774e+00  7.24630841e+00
 -2.24054678e+00 -2.07906774e+00  7.24630841e+00  3.10513498e+00  7.71677144e-01
  2.84227213e+00  3.10513498e+00  7.71677144e-01  2.84227213e+00  3.10513498e+00
  7.71677144e-01  2.84227213e+00  3.10513498e+00  7.71677144e-01  2.84227213e+00
  3.10513498e+00  7.71677144e-01  2.84227213e+00  3.10513498e+00  7.71677144e-01
  2.84227213e+00  3.10513498e+00  7.71677144e-01  2.84227213e+00  3.10513498e+00
  7.71677144e-01  2.84227213e+00  1.74460931e+00 -4.24254555e-01  3.09410612e+00
  1.74460931e+00 -4.24254555e-01  3.09410612e+00  6.25891907e+00  4.00708482e+00
  1.16343820e+00  6.25891907e+00  4.00708482e+00  1.16343820e+00  6.69524173e+00
  5.52651997e+00 -3.26306508e+00  6.69524173e+00  5.52651997e+00 -3.26306508e+00
  3.86261011e+00  3.89527145e+00 -6.65932521e+00  3.86261011e+00  3.89527145e+00
 -6.65932521e+00
Total Energy                               R     -6.516469942564523e+02
Alpha Orbital Energies                     R   N=         317
 -1.91839399e+01 -1.43880404e+01 -1.43386312e+01 -1.02505329e+01 -1.02269616e+01
 -1.02252243e+01 -1.02185585e+01 -1.02108651e+01 -1.02091262e+01 -1.02025894e+01
 -1.01952682e+01 -1.01920685e+01 -1.01899869e+01 -1.01869767e+01 -1.01769496e+01
 -1.06006340e+00 -9.86165403e-01 -9.29528972e-01 -8.39038101e-01 -8.10532834e-01
 -7.55461584e-01 -7.39135216e-01 -7.17455468e-01 -7.12522990e-01 -6.64996852e-01
 -6.26606434e-01 -6.14969989e-01 -5.92191960e-01 -5.74522501e-01 -5.53034395e-01
 -5.04455442e-01 -4.89332753e-01 -4.84349808e-01 -4.83107927e-01 -4.72155461e-01
 -4.59310523e-01 -4.49954333e-01 -4.34550082e-01 -4.30451002e-01 -4.08097028e-01
 -4.00444684e-01 -3.98300841e-01 -3.91390606e-01 -3.88752605e-01 -3.78382279e-01
 -3.75160042e-01 -3.67103095e-01 -3.57360617e-01 -3.51010017e-01 -3.42144081e-01
 -3.17654859e-01 -2.64891024e-01 -2.28379828e-01 -2.23701268e-01 -1.96572494e-01
 -1.25132231e-02 -6.22131303e-03  3.65577196e-04  1.60059652e-02  1.65998449e-02
  1.74358054e-02  2.26711807e-02  2.62317130e-02  3.75559500e-02  4.15830330e-02
  4.54085563e-02  4.86200318e-02  5.01288398e-02  5.65723192e-02  6.27528769e-02
  6.66017512e-02  6.92790060e-02  7.89255702e-02  8.08918016e-02  8.90653466e-02
  9.19452829e-02  9.79596026e-02  1.03064376e-01  1.08313884e-01  1.11119042e-01
  1.13231351e-01  1.23721674e-01  1.27265079e-01  1.34009469e-01  1.39253849e-01
  1.42421680e-01  1.46680798e-01  1.49008642e-01  1.55181495e-01  1.62898615e-01
  1.66415235e-01  1.69180193e-01  1.74509978e-01  1.77474436e-01  1.79931998e-01
  1.82458524e-01  1.88823627e-01  1.92713895e-01  1.98979902e-01  2.02595072e-01