Generated by Psi4
     FORCE                           RHF                       TESTBAS
Number of atoms                            I               27
Charge                                     I                0
Multiplicity                               I                1
Number of electrons                        I               90
Number of alpha electrons                  I               45
Number of beta electrons                   I               45
Number of basis functions                  I              258
Number of independent functions            I              258
Atomic numbers                             I   N=          27
           6           6           6           1           1           7
           6           6           6           6           6           1
           1           6           1           1           1           1
           1           1           1           1           8           6
           1           1           1
Nuclear charges                            R   N=          27
  6.00000000e+00  6.00000000e+00  6.00000000e+00  1.00000000e+00  1.00000000e+00
  7.00000000e+00  6.00000000e+00  6.00000000e+00  6.00000000e+00  6.00000000e+00
  6.00000000e+00  1.00000000e+00  1.00000000e+00  6.00000000e+00  1.00000000e+00
  1.00000000e+00  1.00000000e+00  1.00000000e+00  1.00000000e+00  1.00000000e+00
  1.00000000e+00  1.00000000e+00  8.00000000e+00  6.00000000e+00  1.00000000e+00
  1.00000000e+00  1.00000000e+00
Current cartesian coordinates              R   N=          81
 -1.90033888e-01 -1.15587006e+00  1.08106286e+00 -1.76563906e+00 -2.06330426e+00
  3.29074236e+00 -3.99864888e+00 -3.00300758e-01  4.03561503e+00 -5.54601695e-01
 -2.32275814e+00  4.95935958e+00 -2.56027137e+00 -3.93108217e+00  2.84596700e+00
 -5.68572442e+00 -1.41025463e+00  5.94376798e+00  2.19878772e+00 -4.78922360e-02
  1.42995533e+00  3.62800146e+00  8.19846194e-01 -6.00006403e-01  2.69472741e+00
  6.02118191e-01 -3.07058831e+00  3.23480051e-01 -5.01583049e-01 -3.47117111e+00
 -1.07910202e+00 -1.36573790e+00 -1.40114990e+00  2.95970406e+00  1.33298468e-01
  3.33168244e+00 -4.43578227e-01 -7.11905442e-01 -5.36001772e+00 -3.09765896e+00
  2.27805890e+00  4.98475852e+00 -1.95742061e+00  2.06762784e+00  6.70938477e+00
 -4.72048037e+00  3.47946474e+00  5.43520658e+00 -1.93046718e+00  3.23481898e+00
  3.57010400e+00 -5.15626357e+00  1.88370496e-03  2.33787762e+00 -4.74325805e+00
 -1.67901723e+00  7.60424803e+00 -6.32680507e+00 -3.13706031e+00  5.38073937e+00
 -2.91003625e+00 -2.23601380e+00 -1.75174464e+00  5.47567953e+00  1.66693035e+00
 -3.14028007e-01  4.23341576e+00  1.50508432e+00 -4.94498480e+00  3.39027343e+00
  1.33322795e+00 -7.48752589e+00  3.09847659e+00 -6.41292431e-01 -8.05590289e+00
  4.89215367e+00  2.16056680e+00 -8.63384221e+00  1.63503764e+00  2.40217213e+00
 -7.77622014e+00
Integer atomic weights                     I   N=          27
          12          12          12           1           1          14
          12          12          12          12          12           1
           1          12           1           1           1           1
           1           1           1           1          15          12
           1           1           1
Real atomic weights                        R   N=          27
  1.20000000e+01  1.20000000e+01  1.20000000e+01  1.00782503e+00  1.00782503e+00
  1.40030740e+01  1.20000000e+01  1.20000000e+01  1.20000000e+01  1.20000000e+01
  1.20000000e+01  1.00782503e+00  1.00782503e+00  1.20000000e+01  1.00782503e+00
  1.00782503e+00  1.00782503e+00  1.00782503e+00  1.00782503e+00  1.00782503e+00
  1.00782503e+00  1.00782503e+00  1.59949146e+01  1.20000000e+01  1.00782503e+00
  1.00782503e+00  1.00782503e+00
Number of primitive shells                 I              264
Number of contracted shells                I              126
Pure/Cartesian d shells                    I                1
Pure/Cartesian f shells                    I                1
Highest angular momentum                   I                2
Largest degree of contraction              I                6
Shell types                                I   N=         126
           0           0           1           0           1           2
           0           1           0           0           1           0
           1           2           0           1           0           0
           1           0           1           2           0           1
           0           0           0           0           0           0
           1           0           1           2           0           1
           0           0           1           0           1           2
           0           1           0           0           1           0
           1           2           0           1           0           0
           1           0           1           2           0           1
           0           0           1           0           1           2
           0           1           0           0           1           0
           1           2           0           1           0           0
           0           0           0           0           1           0
           1           2           0           1           0           0
           0           0           0           0           0           0
           0           0           0           0           0           0
           0           0           0           0           1           0
           1           2           0           1           0           0
           1           0           1           2           0           1
           0           0           0           0           0           0
Number of primitives per shell             I   N=         126
           6           3           3           1           1           1
           1           1           6           3           3           1
           1           1           1           1           6           3
           3           1           1           1           1           1
           3           1           3           1           6           3
           3           1           1           1           1           1
           6           3           3           1           1           1
           1           1           6           3           3           1
           1           1           1           1           6           3
           3           1           1           1           1           1
           6           3           3           1           1           1
           1           1           6           3           3           1
           1           1           1           1           3           1
           3           1           6           3           3           1
           1           1           1           1           3           1
           3           1           3           1           3           1
           3           1           3           1           3           1
           3           1           6           3           3           1
           1           1           1           1           6           3
           3           1           1           1           1           1
           3           1           3           1           3           1
Shell to atom map                          I   N=         126
           1           1           1           1           1           1
           1           1           2           2           2           2
           2           2           2           2           3           3
           3           3           3           3           3           3
           4           4           5           5           6           6
           6           6           6           6           6           6
           7           7           7           7           7           7
           7           7           8           8           8           8
           8           8           8           8           9           9
           9           9           9           9           9           9
          10          10          10          10          10          10
          10          10          11          11          11          11
          11          11          11          11          12          12
          13          13          14          14          14          14
          14          14          14          14          15          15
          16          16          17          17          18          18
          19          19          20          20          21          21
          22          22          23          23          23          23
          23          23          23          23          24          24
          24          24          24          24          24          24
          25          25          26          26          27          27
Primitive exponents                        R   N=         264
  3.04752490e+03  4.57369510e+02  1.03948690e+02  2.92101550e+01  9.28666300e+00
  3.16392700e+00  7.86827240e+00  1.88128850e+00  5.44249300e-01  7.86827240e+00
  1.88128850e+00  5.44249300e-01  1.68714400e-01  1.68714400e-01  8.00000000e-01
  4.38000000e-02  4.38000000e-02  3.04752490e+03  4.57369510e+02  1.03948690e+02
  2.92101550e+01  9.28666300e+00  3.16392700e+00  7.86827240e+00  1.88128850e+00
  5.44249300e-01  7.86827240e+00  1.88128850e+00  5.44249300e-01  1.68714400e-01
  1.68714400e-01  8.00000000e-01  4.38000000e-02  4.38000000e-02  3.04752490e+03
  4.57369510e+02  1.03948690e+02  2.92101550e+01  9.28666300e+00  3.16392700e+00
  7.86827240e+00  1.88128850e+00  5.44249300e-01  7.86827240e+00  1.88128850e+00
  5.44249300e-01  1.68714400e-01  1.68714400e-01  8.00000000e-01  4.38000000e-02
  4.38000000e-02  1.87311370e+01  2.82539370e+00  6.40121700e-01  1.61277800e-01
  1.87311370e+01  2.82539370e+00  6.40121700e-01  1.61277800e-01  4.17351100e+03
  6.27457900e+02  1.42902100e+02  4.02343300e+01  1.28202100e+01  4.39043700e+00
  1.16263580e+01  2.71628000e+00  7.72218000e-01  1.16263580e+01  2.71628000e+00
  7.72218000e-01  2.12031300e-01  2.12031300e-01  8.00000000e-01  6.39000000e-02
  6.39000000e-02  3.04752490e+03  4.57369510e+02  1.03948690e+02  2.92101550e+01
  9.28666300e+00  3.16392700e+00  7.86827240e+00  1.88128850e+00  5.44249300e-01
  7.86827240e+00  1.88128850e+00  5.44249300e-01  1.68714400e-01  1.68714400e-01
  8.00000000e-01  4.38000000e-02  4.38000000e-02  3.04752490e+03  4.57369510e+02
  1.03948690e+02  2.92101550e+01  9.28666300e+00  3.16392700e+00  7.86827240e+00
  1.88128850e+00  5.44249300e-01  7.86827240e+00  1.88128850e+00  5.44249300e-01
  1.68714400e-01  1.68714400e-01  8.00000000e-01  4.38000000e-02  4.38000000e-02
  3.04752490e+03  4.57369510e+02  1.03948690e+02  2.92101550e+01  9.28666300e+00
  3.16392700e+00  7.86827240e+00  1.88128850e+00  5.44249300e-01  7.86827240e+00
  1.88128850e+00  5.44249300e-01  1.68714400e-01  1.68714400e-01  8.00000000e-01
  4.38000000e-02  4.38000000e-02  3.04752490e+03  4.57369510e+02  1.03948690e+02
  2.92101550e+01  9.28666300e+00  3.16392700e+00  7.86827240e+00  1.88128850e+00
  5.44249300e-01  7.86827240e+00  1.88128850e+00  5.44249300e-01  1.68714400e-01
  1.68714400e-01  8.00000000e-01  4.38000000e-02  4.38000000e-02  3.04752490e+03
  4.57369510e+02  1.03948690e+02  2.92101550e+01  9.28666300e+00  3.16392700e+00
  7.86827240e+00  1.88128850e+00  5.44249300e-01  7.86827240e+00  1.88128850e+00
  5.44249300e-01  1.68714400e-01  1.68714400e-01  8.00000000e-01  4.38000000e-02
  4.38000000e-02  1.87311370e+01  2.82539370e+00  6.40121700e-01  1.61277800e-01
  1.87311370e+01  2.82539370e+00  6.40121700e-01  1.61277800e-01  3.04752490e+03
  4.57369510e+02  1.03948690e+02  2.92101550e+01  9.28666300e+00  3.16392700e+00
  7.86827240e+00  1.88128850e+00  5.44249300e-01  7.86827240e+00  1.88128850e+00
  5.44249300e-01  1.68714400e-01  1.68714400e-01  8.00000000e-01  4.38000000e-02
  4.38000000e-02  1.87311370e+01  2.82539370e+00  6.40121700e-01  1.61277800e-01
  1.87311370e+01  2.82539370e+00  6.40121700e-01  1.61277800e-01  1.87311370e+01
  2.82539370e+00  6.40121700e-01  1.61277800e-01  1.87311370e+01  2.82539370e+00
  6.40121700e-01  1.61277800e-01  1.87311370e+01  2.82539370e+00  6.40121700e-01
  1.61277800e-01  1.87311370e+01  2.82539370e+00  6.40121700e-01  1.61277800e-01
  1.87311370e+01  2.82539370e+00  6.40121700e-01  1.61277800e-01  1.87311370e+01
  2.82539370e+00  6.40121700e-01  1.61277800e-01  5.48467170e+03  8.25234950e+02
  1.88046960e+02  5.29645000e+01  1.68975700e+01  5.79963530e+00  1.55396160e+01
  3.59993360e+00  1.01376180e+00  1.55396160e+01  3.59993360e+00  1.01376180e+00
  2.70005800e-01  2.70005800e-01  8.00000000e-01  8.45000000e-02  8.45000000e-02
  3.04752490e+03  4.57369510e+02  1.03948690e+02  2.92101550e+01  9.28666300e+00
  3.16392700e+00  7.86827240e+00  1.88128850e+00  5.44249300e-01  7.86827240e+00
  1.88128850e+00  5.44249300e-01  1.68714400e-01  1.68714400e-01  8.00000000e-01
  4.38000000e-02  4.38000000e-02  1.87311370e+01  2.82539370e+00  6.40121700e-01
  1.61277800e-01  1.87311370e+01  2.82539370e+00  6.40121700e-01  1.61277800e-01
  1.87311370e+01  2.82539370e+00  6.40121700e-01  1.61277800e-01
Contraction coefficients                   R   N=         264
  1.83470016e-03  1.40373012e-02  6.88426061e-02  2.32184421e-01  4.67941342e-01
  3.62312032e-01 -1.19332409e-01 -1.60854212e-01  1.14345648e+00  6.89990956e-02
  3.16423980e-01  7.44308252e-01  1.00000000e+00  1.00000000e+00  1.00000000e+00
  1.00000000e+00  1.00000000e+00  1.83470016e-03  1.40373012e-02  6.88426061e-02
  2.32184421e-01  4.67941342e-01  3.62312032e-01 -1.19332409e-01 -1.60854212e-01
  1.14345648e+00  6.89990956e-02  3.16423980e-01  7.44308252e-01  1.00000000e+00
  1.00000000e+00  1.00000000e+00  1.00000000e+00  1.00000000e+00  1.83470016e-03
  1.40373012e-02  6.88426061e-02  2.32184421e-01  4.67941342e-01  3.62312032e-01
 -1.19332409e-01 -1.60854212e-01  1.14345648e+00  6.89990956e-02  3.16423980e-01
  7.44308252e-01  1.00000000e+00  1.00000000e+00  1.00000000e+00  1.00000000e+00
  1.00000000e+00  3.34945995e-02  2.34726947e-01  8.13757318e-01  1.00000000e+00
  3.34945995e-02  2.34726947e-01  8.13757318e-01  1.00000000e+00  1.83479944e-03
  1.39949958e-02  6.85869792e-02  2.32240930e-01  4.69069858e-01  3.60454891e-01
 -1.14961023e-01 -1.69118034e-01  1.14585223e+00  6.75800232e-02  3.23907111e-01
  7.40895255e-01  1.00000000e+00  1.00000000e+00  1.00000000e+00  1.00000000e+00
  1.00000000e+00  1.83470016e-03  1.40373012e-02  6.88426061e-02  2.32184421e-01
  4.67941342e-01  3.62312032e-01 -1.19332409e-01 -1.60854212e-01  1.14345648e+00
  6.89990956e-02  3.16423980e-01  7.44308252e-01  1.00000000e+00  1.00000000e+00
  1.00000000e+00  1.00000000e+00  1.00000000e+00  1.83470016e-03  1.40373012e-02
  6.88426061e-02  2.32184421e-01  4.67941342e-01  3.62312032e-01 -1.19332409e-01
 -1.60854212e-01  1.14345648e+00  6.89990956e-02  3.16423980e-01  7.44308252e-01
  1.00000000e+00  1.00000000e+00  1.00000000e+00  1.00000000e+00  1.00000000e+00
  1.83470016e-03  1.40373012e-02  6.88426061e-02  2.32184421e-01  4.67941342e-01
  3.62312032e-01 -1.19332409e-01 -1.60854212e-01  1.14345648e+00  6.89990956e-02
  3.16423980e-01  7.44308252e-01  1.00000000e+00  1.00000000e+00  1.00000000e+00
  1.00000000e+00  1.00000000e+00  1.83470016e-03  1.40373012e-02  6.88426061e-02
  2.32184421e-01  4.67941342e-01  3.62312032e-01 -1.19332409e-01 -1.60854212e-01
  1.14345648e+00  6.89990956e-02  3.16423980e-01  7.44308252e-01  1.00000000e+00
  1.00000000e+00  1.00000000e+00  1.00000000e+00  1.00000000e+00  1.83470016e-03
  1.40373012e-02  6.88426061e-02  2.32184421e-01  4.67941342e-01  3.62312032e-01
 -1.19332409e-01 -1.60854212e-01  1.14345648e+00  6.89990956e-02  3.16423980e-01
  7.44308252e-01  1.00000000e+00  1.00000000e+00  1.00000000e+00  1.00000000e+00
  1.00000000e+00  3.34945995e-02  2.34726947e-01  8.13757318e-01  1.00000000e+00
  3.34945995e-02  2.34726947e-01  8.13757318e-01  1.00000000e+00  1.83470016e-03
  1.40373012e-02  6.88426061e-02  2.32184421e-01  4.67941342e-01  3.62312032e-01
 -1.19332409e-01 -1.60854212e-01  1.14345648e+00  6.89990956e-02  3.16423980e-01
  7.44308252e-01  1.00000000e+00  1.00000000e+00  1.00000000e+00  1.00000000e+00
  1.00000000e+00  3.34945995e-02  2.34726947e-01  8.13757318e-01  1.00000000e+00
  3.34945995e-02  2.34726947e-01  8.13757318e-01  1.00000000e+00  3.34945995e-02
  2.34726947e-01  8.13757318e-01  1.00000000e+00  3.34945995e-02  2.34726947e-01
  8.13757318e-01  1.00000000e+00  3.34945995e-02  2.34726947e-01  8.13757318e-01
  1.00000000e+00  3.34945995e-02  2.34726947e-01  8.13757318e-01  1.00000000e+00
  3.34945995e-02  2.34726947e-01  8.13757318e-01  1.00000000e+00  3.34945995e-02
  2.34726947e-01  8.13757318e-01  1.00000000e+00  1.83109981e-03  1.39500985e-02
  6.84450927e-02  2.32714275e-01  4.70192950e-01  3.58520862e-01 -1.10777504e-01
 -1.48026305e-01  1.13076704e+00  7.08742995e-02  3.39752798e-01  7.27158595e-01
  1.00000000e+00  1.00000000e+00  1.00000000e+00  1.00000000e+00  1.00000000e+00
  1.83470016e-03  1.40373012e-02  6.88426061e-02  2.32184421e-01  4.67941342e-01
  3.62312032e-01 -1.19332409e-01 -1.60854212e-01  1.14345648e+00  6.89990956e-02
  3.16423980e-01  7.44308252e-01  1.00000000e+00  1.00000000e+00  1.00000000e+00
  1.00000000e+00  1.00000000e+00  3.34945995e-02  2.34726947e-01  8.13757318e-01
  1.00000000e+00  3.34945995e-02  2.34726947e-01  8.13757318e-01  1.00000000e+00
  3.34945995e-02  2.34726947e-01  8.13757318e-01  1.00000000e+00
Coordinates of each shell                  R   N=         378
 -1.90033888e-01 -1.15587006e+00  1.08106286e+00 -1.90033888e-01 -1.15587006e+00
  1.08106286e+00 -1.90033888e-01 -1.15587006e+00  1.08106286e+00 -1.90033888e-01
 -1.15587006e+00  1.08106286e+00 -1.90033888e-01 -1.15587006e+00  1.08106286e+00
 -1.90033888e-01 -1.15587006e+00  1.08106286e+00 -1.90033888e-01 -1.15587006e+00
  1.08106286e+00 -1.90033888e-01 -1.15587006e+00  1.08106286e+00 -1.76563906e+00
 -2.06330426e+00  3.29074236e+00 -1.76563906e+00 -2.06330426e+00  3.29074236e+00
 -1.76563906e+00 -2.06330426e+00  3.29074236e+00 -1.76563906e+00 -2.06330426e+00
  3.29074236e+00 -1.76563906e+00 -2.06330426e+00  3.29074236e+00 -1.76563906e+00
 -2.06330426e+00  3.29074236e+00 -1.76563906e+00 -2.06330426e+00  3.29074236e+00
 -1.76563906e+00 -2.06330426e+00  3.29074236e+00 -3.99864888e+00 -3.00300758e-01
  4.03561503e+00 -3.99864888e+00 -3.00300758e-01  4.03561503e+00 -3.99864888e+00
 -3.00300758e-01  4.03561503e+00 -3.99864888e+00 -3.00300758e-01  4.03561503e+00
 -3.99864888e+00 -3.00300758e-01  4.03561503e+00 -3.99864888e+00 -3.00300758e-01
  4.03561503e+00 -3.99864888e+00 -3.00300758e-01  4.03561503e+00 -3.99864888e+00
 -3.00300758e-01  4.03561503e+00 -5.54601695e-01 -2.32275814e+00  4.95935958e+00
 -5.54601695e-01 -2.32275814e+00  4.95935958e+00 -2.56027137e+00 -3.93108217e+00
  2.84596700e+00 -2.56027137e+00 -3.93108217e+00  2.84596700e+00 -5.68572442e+00
 -1.41025463e+00  5.94376798e+00 -5.68572442e+00 -1.41025463e+00  5.94376798e+00
 -5.68572442e+00 -1.41025463e+00  5.94376798e+00 -5.68572442e+00 -1.41025463e+00
  5.94376798e+00 -5.68572442e+00 -1.41025463e+00  5.94376798e+00 -5.68572442e+00
 -1.41025463e+00  5.94376798e+00 -5.68572442e+00 -1.41025463e+00  5.94376798e+00
 -5.68572442e+00 -1.41025463e+00  5.94376798e+00  2.19878772e+00 -4.78922360e-02
  1.42995533e+00  2.19878772e+00 -4.78922360e-02  1.42995533e+00  2.19878772e+00
 -4.78922360e-02  1.42995533e+00  2.19878772e+00 -4.78922360e-02  1.42995533e+00
  2.19878772e+00 -4.78922360e-02  1.42995533e+00  2.19878772e+00 -4.78922360e-02
  1.42995533e+00  2.19878772e+00 -4.78922360e-02  1.42995533e+00  2.19878772e+00
 -4.78922360e-02  1.42995533e+00  3.62800146e+00  8.19846194e-01 -6.00006403e-01
  3.62800146e+00  8.19846194e-01 -6.00006403e-01  3.62800146e+00  8.19846194e-01
 -6.00006403e-01  3.62800146e+00  8.19846194e-01 -6.00006403e-01  3.62800146e+00
  8.19846194e-01 -6.00006403e-01  3.62800146e+00  8.19846194e-01 -6.00006403e-01
  3.62800146e+00  8.19846194e-01 -6.00006403e-01  3.62800146e+00  8.19846194e-01
 -6.00006403e-01  2.69472741e+00  6.02118191e-01 -3.07058831e+00  2.69472741e+00
  6.02118191e-01 -3.07058831e+00  2.69472741e+00  6.02118191e-01 -3.07058831e+00
  2.69472741e+00  6.02118191e-01 -3.07058831e+00  2.69472741e+00  6.02118191e-01
 -3.07058831e+00  2.69472741e+00  6.02118191e-01 -3.07058831e+00  2.69472741e+00
  6.02118191e-01 -3.07058831e+00  2.69472741e+00  6.02118191e-01 -3.07058831e+00
  3.23480051e-01 -5.01583049e-01 -3.47117111e+00  3.23480051e-01 -5.01583049e-01
 -3.47117111e+00  3.23480051e-01 -5.01583049e-01 -3.47117111e+00  3.23480051e-01
 -5.01583049e-01 -3.47117111e+00  3.23480051e-01 -5.01583049e-01 -3.47117111e+00
  3.23480051e-01 -5.01583049e-01 -3.47117111e+00  3.23480051e-01 -5.01583049e-01
 -3.47117111e+00  3.23480051e-01 -5.01583049e-01 -3.47117111e+00 -1.07910202e+00
 -1.36573790e+00 -1.40114990e+00 -1.07910202e+00 -1.36573790e+00 -1.40114990e+00
 -1.07910202e+00 -1.36573790e+00 -1.40114990e+00 -1.07910202e+00 -1.36573790e+00
 -1.40114990e+00 -1.07910202e+00 -1.36573790e+00 -1.40114990e+00 -1.07910202e+00
 -1.36573790e+00 -1.40114990e+00 -1.07910202e+00 -1.36573790e+00 -1.40114990e+00
 -1.07910202e+00 -1.36573790e+00 -1.40114990e+00  2.95970406e+00  1.33298468e-01
  3.33168244e+00  2.95970406e+00  1.33298468e-01  3.33168244e+00 -4.43578227e-01
 -7.11905442e-01 -5.36001772e+00 -4.43578227e-01 -7.11905442e-01 -5.36001772e+00
 -3.09765896e+00  2.27805890e+00  4.98475852e+00 -3.09765896e+00  2.27805890e+00
  4.98475852e+00 -3.09765896e+00  2.27805890e+00  4.98475852e+00 -3.09765896e+00
  2.27805890e+00  4.98475852e+00 -3.09765896e+00  2.27805890e+00  4.98475852e+00
 -3.09765896e+00  2.27805890e+00  4.98475852e+00 -3.09765896e+00  2.27805890e+00
  4.98475852e+00 -3.09765896e+00  2.27805890e+00  4.98475852e+00 -1.95742061e+00
  2.06762784e+00  6.70938477e+00 -1.95742061e+00  2.06762784e+00  6.70938477e+00
 -4.72048037e+00  3.47946474e+00  5.43520658e+00 -4.72048037e+00  3.47946474e+00
  5.43520658e+00 -1.93046718e+00  3.23481898e+00  3.57010400e+00 -1.93046718e+00
  3.23481898e+00  3.57010400e+00 -5.15626357e+00  1.88370496e-03  2.33787762e+00
 -5.15626357e+00  1.88370496e-03  2.33787762e+00 -4.74325805e+00 -1.67901723e+00
  7.60424803e+00 -4.74325805e+00 -1.67901723e+00  7.60424803e+00 -6.32680507e+00
 -3.13706031e+00  5.38073937e+00 -6.32680507e+00 -3.13706031e+00  5.38073937e+00
 -2.91003625e+00 -2.23601380e+00 -1.75174464e+00 -2.91003625e+00 -2.23601380e+00
 -1.75174464e+00  5.47567953e+00  1.66693035e+00 -3.14028007e-01  5.47567953e+00
  1.66693035e+00 -3.14028007e-01  4.23341576e+00  1.50508432e+00 -4.94498480e+00
  4.23341576e+00  1.50508432e+00 -4.94498480e+00  4.23341576e+00  1.50508432e+00
 -4.94498480e+00  4.23341576e+00  1.50508432e+00 -4.94498480e+00  4.23341576e+00
  1.50508432e+00 -4.94498480e+00  4.23341576e+00  1.50508432e+00 -4.94498480e+00
  4.23341576e+00  1.50508432e+00 -4.94498480e+00  4.23341576e+00  1.50508432e+00
 -4.94498480e+00  3.39027343e+00  1.33322795e+00 -7.48752589e+00  3.39027343e+00
  1.33322795e+00 -7.48752589e+00  3.39027343e+00  1.33322795e+00 -7.48752589e+00
  3.39027343e+00  1.33322795e+00 -7.48752589e+00  3.39027343e+00  1.33322795e+00
 -7.48752589e+00  3.39027343e+00  1.33322795e+00 -7.48752589e+00  3.39027343e+00
  1.33322795e+00 -7.48752589e+00  3.39027343e+00  1.33322795e+00 -7.48752589e+00
  3.09847659e+00 -6.41292431e-01 -8.05590289e+00  3.09847659e+00 -6.41292431e-01
 -8.05590289e+00  4.89215367e+00  2.16056680e+00 -8.63384221e+00  4.89215367e+00
  2.16056680e+00 -8.63384221e+00  1.63503764e+00  2.40217213e+00 -7.77622014e+00
  1.63503764e+00  2.40217213e+00 -7.77622014e+00
Total Energy                               R     -5.200805160184602e+02
Alpha Orbital Energies                     R   N=         258
 -1.91878471e+01 -1.43212764e+01 -1.02533772e+01 -1.02465157e+01 -1.02189222e+01
 -1.01967007e+01 -1.01958607e+01 -1.01956836e+01 -1.01949979e+01 -1.01909959e+01
 -1.01897570e+01 -1.01735024e+01 -1.07047831e+00 -8.90435781e-01 -8.57736079e-01
 -7.82569351e-01 -7.53648230e-01 -7.38311875e-01 -7.10773663e-01 -6.70634215e-01
 -6.17964842e-01 -5.94661579e-01 -5.73862465e-01 -5.37990238e-01 -5.01186995e-01
 -4.86772188e-01 -4.74127240e-01 -4.72564820e-01 -4.55252880e-01 -4.49738739e-01
 -4.30543447e-01 -4.27390712e-01 -4.18625409e-01 -3.92298385e-01 -3.81782558e-01
 -3.75107638e-01 -3.64192485e-01 -3.57330046e-01 -3.50493099e-01 -3.38029744e-01
 -3.30386617e-01 -3.18056217e-01 -2.57381345e-01 -2.45107632e-01 -2.18117867e-01
 -1.58049910e-02 -5.87150469e-03  1.71750610e-03  6.24294390e-03  1.74919634e-02
  2.30077413e-02  2.95411461e-02  3.36512690e-02  4.18386582e-02  4.76852240e-02
  4.83276491e-02  5.51396979e-02  6.02651715e-02  7.06676979e-02  7.89562225e-02
  8.42665209e-02  8.72017048e-02  9.51164762e-02  1.01575612e-01  1.06684350e-01
  1.07588770e-01  1.19612500e-01  1.25580028e-01  1.28458794e-01  1.32683265e-01
  1.39061556e-01  1.41792014e-01  1.48688052e-01  1.51771999e-01  1.55857278e-01
  1.59705074e-01  1.65912243e-01  1.75489987e-01  1.77276934e-01  1.82159925e-01
  1.87041959e-01  1.90311948e-01  2.03793810e-01  2.07043990e-01  2.10166360e-01
  2.12985693e-01  2.16970526e-01  2.20377484e-01  2.25155110e-01  2.30105737e-01
  2.32659982e-01  2.37051521e-01  2.42121349e-01  2.51565550e-01  2.56867261e-01
  2.62419622e-01  2.67073214e-01  2.71467869e-01  2.79178872e-01  2.82815871e-01
  2.84935954e-01  2.90671615e-01  2.96590670e-01  3.00106204e-01  3.02333365e-01
  3.11131965e-01  3.15124286e-01  3.20390800e-01  3.34433714e-01  3.41856849e-01
  3.48776055e-01  3.57970806e-01  3.66091488e-01  3.74091644e-01  3.81769879e-01
  3.84197657e-01  3.89585562e-01  4.05275734e-01  4.34729427e-01  4.59035682e-01
  4.75478472e-01  5.69980101e-01  6.06603822e-01  6.52259851e-01  6.59676738e-01
  6.73108244e-01  6.78215050e-01  6.85332736e-01  6.91208313e-01  6.96375322e-01
  6.99088166e-01  7.04173018e-01  7.28718265e-01  7.36405879e-01  7.49758368e-01
  7.58280656e-01  7.72555325e-01  7.77158081e-01  7.88545402e-01  7.89638085e-01
  8.04561517e-01  8.12569913e-01  8.29691003e-01  8.77373422e-01  8.94496402e-01
  9.01191090e-01  9.16664229e-01  9.28564723e-01  9.39155470e-01  9.49362598e-01
  9.67356101e-01  9.71304822e-01  9.80745749e-01  9.88314775e-01  1.00688690e+00
  1.02369853e+00  1.03161213e+00  1.03499801e+00  1.06093212e+00  1.06835147e+00
  1.07680839e+00  1.09647870e+00  1.09987824e+00  1.12156078e+00  1.13487611e+00
  1.14827234e+00  1.16292392e+00  1.17658694e+00  1.19162557e+00  1.20319773e+00
  1.21698732e+00  1.22222892e+00  1.23899879e+00  1.25569079e+00  1.26855794e+00
  1.29858903e+00  1.31124952e+00  1.31816795e+00  1.37225171e+00  1.41035024e+00
  1.42005685e+00  1.42843503e+00  1.45716127e+00  1.46419092e+00  1.47844786e+00
  1.49592690e+00  1.51203644e+00  1.52165690e+00  1.54279454e+00  1.57527241e+00
  1.60890528e+00  1.63541169e+00  1.72548060e+00  1.73342778e+00  1.80967147e+00
  1.81350489e+00  1.83159863e+00  1.85377200e+00  1.86413919e+00  1.88785133e+00
  1.90564381e+00  1.92804151e+00  1.95953604e+00  1.96753690e+00  1.98966309e+00
  2.00924020e+00  2.02913460e+00  2.05057644e+00  2.07343873e+00  2.08453219e+00
  2.10064066e+00  2.11553892e+00  2.12027926e+00  2.15403777e+00  2.16391282e+00
  2.18843320e+00  2.20395227e+00  2.21892618e+00  2.22860546e+00  2.25881020e+00
  2.29098416e+00  2.30821498e+00  2.32766002e+00  2.33641966e+00  2.35347616e+00
  2.39343993e+00  2.41864093e+00  2.43008922e+00  2.52009539e+00  2.53838458e+00
  2.57550775e+00  2.59809620e+00  2.61006068e+00  2.66083799e+00  2.67098927e+00
  2.69689098e+00  2.74905878e+00  2.77986076e+00  2.80879682e+00  2.81676408e+00
  2.85837004e+00  2.94830156e+00  2.96549288e+00  3.05234959e+00  3.18492967e+00
  3.42913416e+00  3.99053709e+00  4.24352312e+00  4.25406414e+00  4.26591194e+00
  4.30737287e+00  4.35943513e+00  4.39129822e+00  4.42571623e+00  4.49216127e+00
  4.55927937e+00  4.61986329e+00  4.79536841e+00
Alpha MO coefficients                      R   N=       66564
  7.04132484e-09 -6.05936460e-06  1.12842441e-05  7.62679043e-06 -4.46366121e-06
  3.70494962e-04  2.40559092e-04  9.75850771e-05  1.26274789e-04  6.85544122e-06
  7.32154419e-06 -3.44048365e-06  2.85236366e-06 -1.53021669e-05 -6.57682790e-06
  5.23270591e-03 -3.50039155e-03 -1.57909437e-03 -1.41631790e-03  3.81341906e-06
  1.87988798e-05  4.49513892e-06  4.35580255e-07 -3.54829805e-06 -1.18704001e-04
 -1.07041642e-04 -4.81888372e-05  1.97319409e-05 -3.88669896e-07  5.97150779e-06
  4.40034754e-06 -4.50387590e-06  6.55422720e-06  4.33968615e-06 -3.18411839e-03
 -4.35300908e-04 -1.20290512e-04  9.11968199e-04 -3.03973695e-07 -2.84457381e-06
 -1.47742185e-06 -5.48221374e-07 -4.37473737e-06  2.12772179e-05  2.52486597e-05
  4.19920051e-05  4.04754865e-05  1.99647373e-06 -1.64457310e-07 -4.17758409e-08
  2.89309715e-06  1.84884300e-07  7.88374001e-07  2.13530249e-04  1.05489184e-04
  3.53108251e-04  1.82503911e-05  6.59370378e-06  2.44493623e-05  9.23413422e-07
 -4.73593865e-05  1.16604810e-06  4.27782718e-06  8.15734682e-07 -3.00216379e-06
 -4.80675443e-08 -2.78772227e-05 -8.85249929e-06  1.28120282e-05 -6.08505998e-06
  5.43544212e-07  1.87811003e-06  4.54710557e-06 -1.12056231e-06  2.10338693e-07
  4.35213033e-07  1.18625772e-05 -4.94274781e-05 -2.72181382e-05 -3.91988393e-05
  1.30228365e-05  5.01614736e-05 -1.57261291e-06  4.78208058e-06 -3.46104021e-05
 -3.35531533e-04  4.28446760e-04  1.66418295e-04  3.14718805e-04  3.03899867e-05
  3.00162454e-05  1.34294018e-05  2.62499905e-06 -2.00274962e-05 -8.00010499e-06
  1.14387160e-03 -2.69904251e-03 -1.24233306e-03  4.67584076e-04 -1.19270018e-05
  4.92108585e-05  2.23572066e-05  1.17874416e-05 -2.64519942e-06  8.49643925e-04
 -2.86224704e-04 -7.35685085e-05 -6.87655899e-04 -4.99542943e-05 -2.23352278e-05