Generated by Psi4
     FORCE                           RHF                       TESTBAS
Number of atoms                            I               34
Charge                                     I                0
Multiplicity                               I                1
Number of electrons                        I              114
Number of alpha electrons                  I               57
Number of beta electrons                   I               57
Number of basis functions                  I              323
Number of independent functions            I              323
Atomic numbers                             I   N=          34
           6           6           6           1           1           7
           6           6           6           6           6           6
           1           1           1           1           1           1
           1           1           8           8           6           1
           1           1           6           1           1           1
           6           1           1           1
Nuclear charges                            R   N=          34
  6.00000000e+00  6.00000000e+00  6.00000000e+00  1.00000000e+00  1.00000000e+00
  7.00000000e+00  6.00000000e+00  6.00000000e+00  6.00000000e+00  6.00000000e+00
  6.00000000e+00  6.00000000e+00  1.00000000e+00  1.00000000e+00  1.00000000e+00
  1.00000000e+00  1.00000000e+00  1.00000000e+00  1.00000000e+00  1.00000000e+00
  8.00000000e+00  8.00000000e+00  6.00000000e+00  1.00000000e+00  1.00000000e+00
  1.00000000e+00  6.00000000e+00  1.00000000e+00  1.00000000e+00  1.00000000e+00
  6.00000000e+00  1.00000000e+00  1.00000000e+00  1.00000000e+00
Current cartesian coordinates              R   N=         102
 -8.57231798e-02 -9.00060427e-01  9.58612575e-01 -1.39884844e+00 -1.84421682e+00
  3.31852827e+00 -3.86172712e+00 -4.00275512e-01  4.02784595e+00 -1.01511213e-01
 -1.76609708e+00  4.93050224e+00 -1.90352393e+00 -3.84081255e+00  3.04208342e+00
 -5.24284383e+00 -1.57454441e+00  6.13520671e+00  2.06221349e+00  6.57023826e-01
  1.06365493e+00  3.20750386e+00  1.49815102e+00 -1.17200059e+00  2.26770961e+00
  8.39062919e-01 -3.55171345e+00  1.19799880e-01 -7.20666440e-01 -3.65822168e+00
 -1.01756045e+00 -1.56980153e+00 -1.43111543e+00 -3.38025619e+00  2.37742567e+00
  4.66972072e+00 -2.13957198e+00  2.54419486e+00  6.32516019e+00 -5.16827715e+00
  3.32680949e+00  5.09803068e+00 -2.46013395e+00  3.35990477e+00  3.09909652e+00
 -5.13292027e+00 -4.74139553e-01  2.38644359e+00 -4.19036261e+00 -1.49970745e+00
  7.74921035e+00 -5.58556635e+00 -3.43719111e+00  5.78284761e+00 -2.66116793e+00
 -2.79483401e+00 -1.51271188e+00  4.87016499e+00  2.69526849e+00 -1.09432033e+00
 -7.16402824e-01 -1.32106195e+00 -6.04567085e+00  2.93519993e+00  1.27008124e+00
  3.43756822e+00 -2.88325716e+00 -2.88009334e+00 -6.29126866e+00 -3.19953066e+00
 -3.08892133e+00 -8.31944924e+00 -4.55185369e+00 -2.00299948e+00 -5.42178280e+00
 -2.57206859e+00 -4.75179566e+00 -5.44860152e+00  5.13887555e+00  2.78037204e+00
  3.64984971e+00  5.48250991e+00  2.99083717e+00  5.67365831e+00  4.86197910e+00
  4.65581121e+00  2.80369038e+00  6.77841861e+00  1.86275115e+00  2.76667667e+00
  3.51110950e+00  1.75386438e+00 -5.94785953e+00  5.15255795e+00  2.93915236e+00
 -5.52043342e+00  2.19500025e+00  2.85897519e+00 -7.10719229e+00  4.14262916e+00
  1.67952207e-01 -7.12412848e+00
Integer atomic weights                     I   N=          34
          12          12          12           1           1          14
          12          12          12          12          12          12
           1           1           1           1           1           1
           1           1          15          15          12           1
           1           1          12           1           1           1
          12           1           1           1
Real atomic weights                        R   N=          34
  1.20000000e+01  1.20000000e+01  1.20000000e+01  1.00782503e+00  1.00782503e+00
  1.40030740e+01  1.20000000e+01  1.20000000e+01  1.20000000e+01  1.20000000e+01
  1.20000000e+01  1.20000000e+01  1.00782503e+00  1.00782503e+00  1.00782503e+00
  1.00782503e+00  1.00782503e+00  1.00782503e+00  1.00782503e+00  1.00782503e+00
  1.59949146e+01  1.59949146e+01  1.20000000e+01  1.00782503e+00  1.00782503e+00
  1.00782503e+00  1.20000000e+01  1.00782503e+00  1.00782503e+00  1.00782503e+00
  1.20000000e+01  1.00782503e+00  1.00782503e+00  1.00782503e+00
Number of primitive shells                 I              331
Number of contracted shells                I              158
Pure/Cartesian d shells                    I                1
Pure/Cartesian f shells                    I                1
Highest angular momentum                   I                2
Largest degree of contraction              I                6
Shell types                                I   N=         158
           0           0           1           0           1           2
           0           1           0           0           1           0
           1           2           0           1           0           0
           1           0           1           2           0           1
           0           0           0           0           0           0
           1           0           1           2           0           1
           0           0           1           0           1           2
           0           1           0           0           1           0
           1           2           0           1           0           0
           1           0           1           2           0           1
           0           0           1           0           1           2
           0           1           0           0           1           0
           1           2           0           1           0           0
           1           0           1           2           0           1
           0           0           0           0           0           0
           0           0           0           0           0           0
           0           0           0           0           0           0
           1           0           1           2           0           1
           0           0           1           0           1           2
           0           1           0           0           1           0
           1           2           0           1           0           0
           0           0           0           0           0           0
           1           0           1           2           0           1
           0           0           0           0           0           0
           0           0           1           0           1           2
           0           1           0           0           0           0
           0           0
Number of primitives per shell             I   N=         158
           6           3           3           1           1           1
           1           1           6           3           3           1
           1           1           1           1           6           3
           3           1           1           1           1           1
           3           1           3           1           6           3
           3           1           1           1           1           1
           6           3           3           1           1           1
           1           1           6           3           3           1
           1           1           1           1           6           3
           3           1           1           1           1           1
           6           3           3           1           1           1
           1           1           6           3           3           1
           1           1           1           1           6           3
           3           1           1           1           1           1
           3           1           3           1           3           1
           3           1           3           1           3           1
           3           1           3           1           6           3
           3           1           1           1           1           1
           6           3           3           1           1           1
           1           1           6           3           3           1
           1           1           1           1           3           1
           3           1           3           1           6           3
           3           1           1           1           1           1
           3           1           3           1           3           1
           6           3           3           1           1           1
           1           1           3           1           3           1
           3           1
Shell to atom map                          I   N=         158
           1           1           1           1           1           1
           1           1           2           2           2           2
           2           2           2           2           3           3
           3           3           3           3           3           3
           4           4           5           5           6           6
           6           6           6           6           6           6
           7           7           7           7           7           7
           7           7           8           8           8           8
           8           8           8           8           9           9
           9           9           9           9           9           9
          10          10          10          10          10          10
          10          10          11          11          11          11
          11          11          11          11          12          12
          12          12          12          12          12          12
          13          13          14          14          15          15
          16          16          17          17          18          18
          19          19          20          20          21          21
          21          21          21          21          21          21
          22          22          22          22          22          22
          22          22          23          23          23          23
          23          23          23          23          24          24
          25          25          26          26          27          27
          27          27          27          27          27          27
          28          28          29          29          30          30
          31          31          31          31          31          31
          31          31          32          32          33          33
          34          34
Primitive exponents                        R   N=         331
  3.04752490e+03  4.57369510e+02  1.03948690e+02  2.92101550e+01  9.28666300e+00
  3.16392700e+00  7.86827240e+00  1.88128850e+00  5.44249300e-01  7.86827240e+00
  1.88128850e+00  5.44249300e-01  1.68714400e-01  1.68714400e-01  8.00000000e-01
  4.38000000e-02  4.38000000e-02  3.04752490e+03  4.57369510e+02  1.03948690e+02
  2.92101550e+01  9.28666300e+00  3.16392700e+00  7.86827240e+00  1.88128850e+00
  5.44249300e-01  7.86827240e+00  1.88128850e+00  5.44249300e-01  1.68714400e-01
  1.68714400e-01  8.00000000e-01  4.38000000e-02  4.38000000e-02  3.04752490e+03
  4.57369510e+02  1.03948690e+02  2.92101550e+01  9.28666300e+00  3.16392700e+00
  7.86827240e+00  1.88128850e+00  5.44249300e-01  7.86827240e+00  1.88128850e+00
  5.44249300e-01  1.68714400e-01  1.68714400e-01  8.00000000e-01  4.38000000e-02
  4.38000000e-02  1.87311370e+01  2.82539370e+00  6.40121700e-01  1.61277800e-01
  1.87311370e+01  2.82539370e+00  6.40121700e-01  1.61277800e-01  4.17351100e+03
  6.27457900e+02  1.42902100e+02  4.02343300e+01  1.28202100e+01  4.39043700e+00
  1.16263580e+01  2.71628000e+00  7.72218000e-01  1.16263580e+01  2.71628000e+00
  7.72218000e-01  2.12031300e-01  2.12031300e-01  8.00000000e-01  6.39000000e-02
  6.39000000e-02  3.04752490e+03  4.57369510e+02  1.03948690e+02  2.92101550e+01
  9.28666300e+00  3.16392700e+00  7.86827240e+00  1.88128850e+00  5.44249300e-01
  7.86827240e+00  1.88128850e+00  5.44249300e-01  1.68714400e-01  1.68714400e-01
  8.00000000e-01  4.38000000e-02  4.38000000e-02  3.04752490e+03  4.57369510e+02
  1.03948690e+02  2.92101550e+01  9.28666300e+00  3.16392700e+00  7.86827240e+00
  1.88128850e+00  5.44249300e-01  7.86827240e+00  1.88128850e+00  5.44249300e-01
  1.68714400e-01  1.68714400e-01  8.00000000e-01  4.38000000e-02  4.38000000e-02
  3.04752490e+03  4.57369510e+02  1.03948690e+02  2.92101550e+01  9.28666300e+00
  3.16392700e+00  7.86827240e+00  1.88128850e+00  5.44249300e-01  7.86827240e+00
  1.88128850e+00  5.44249300e-01  1.68714400e-01  1.68714400e-01  8.00000000e-01
  4.38000000e-02  4.38000000e-02  3.04752490e+03  4.57369510e+02  1.03948690e+02
  2.92101550e+01  9.28666300e+00  3.16392700e+00  7.86827240e+00  1.88128850e+00
  5.44249300e-01  7.86827240e+00  1.88128850e+00  5.44249300e-01  1.68714400e-01
  1.68714400e-01  8.00000000e-01  4.38000000e-02  4.38000000e-02  3.04752490e+03
  4.57369510e+02  1.03948690e+02  2.92101550e+01  9.28666300e+00  3.16392700e+00
  7.86827240e+00  1.88128850e+00  5.44249300e-01  7.86827240e+00  1.88128850e+00
  5.44249300e-01  1.68714400e-01  1.68714400e-01  8.00000000e-01  4.38000000e-02
  4.38000000e-02  3.04752490e+03  4.57369510e+02  1.03948690e+02  2.92101550e+01
  9.28666300e+00  3.16392700e+00  7.86827240e+00  1.88128850e+00  5.44249300e-01
  7.86827240e+00  1.88128850e+00  5.44249300e-01  1.68714400e-01  1.68714400e-01
  8.00000000e-01  4.38000000e-02  4.38000000e-02  1.87311370e+01  2.82539370e+00
  6.40121700e-01  1.61277800e-01  1.87311370e+01  2.82539370e+00  6.40121700e-01
  1.61277800e-01  1.87311370e+01  2.82539370e+00  6.40121700e-01  1.61277800e-01
  1.87311370e+01  2.82539370e+00  6.40121700e-01  1.61277800e-01  1.87311370e+01
  2.82539370e+00  6.40121700e-01  1.61277800e-01  1.87311370e+01  2.82539370e+00
  6.40121700e-01  1.61277800e-01  1.87311370e+01  2.82539370e+00  6.40121700e-01
  1.61277800e-01  1.87311370e+01  2.82539370e+00  6.40121700e-01  1.61277800e-01
  5.48467170e+03  8.25234950e+02  1.88046960e+02  5.29645000e+01  1.68975700e+01
  5.79963530e+00  1.55396160e+01  3.59993360e+00  1.01376180e+00  1.55396160e+01
  3.59993360e+00  1.01376180e+00  2.70005800e-01  2.70005800e-01  8.00000000e-01
  8.45000000e-02  8.45000000e-02  5.48467170e+03  8.25234950e+02  1.88046960e+02
  5.29645000e+01  1.68975700e+01  5.79963530e+00  1.55396160e+01  3.59993360e+00
  1.01376180e+00  1.55396160e+01  3.59993360e+00  1.01376180e+00  2.70005800e-01
  2.70005800e-01  8.00000000e-01  8.45000000e-02  8.45000000e-02  3.04752490e+03
  4.57369510e+02  1.03948690e+02  2.92101550e+01  9.28666300e+00  3.16392700e+00
  7.86827240e+00  1.88128850e+00  5.44249300e-01  7.86827240e+00  1.88128850e+00
  5.44249300e-01  1.68714400e-01  1.68714400e-01  8.00000000e-01  4.38000000e-02
  4.38000000e-02  1.87311370e+01  2.82539370e+00  6.40121700e-01  1.61277800e-01
  1.87311370e+01  2.82539370e+00  6.40121700e-01  1.61277800e-01  1.87311370e+01
  2.82539370e+00  6.40121700e-01  1.61277800e-01  3.04752490e+03  4.57369510e+02
  1.03948690e+02  2.92101550e+01  9.28666300e+00  3.16392700e+00  7.86827240e+00
  1.88128850e+00  5.44249300e-01  7.86827240e+00  1.88128850e+00  5.44249300e-01
  1.68714400e-01  1.68714400e-01  8.00000000e-01  4.38000000e-02  4.38000000e-02
  1.87311370e+01  2.82539370e+00  6.40121700e-01  1.61277800e-01  1.87311370e+01
  2.82539370e+00  6.40121700e-01  1.61277800e-01  1.87311370e+01  2.82539370e+00
  6.40121700e-01  1.61277800e-01  3.04752490e+03  4.57369510e+02  1.03948690e+02
  2.92101550e+01  9.28666300e+00  3.16392700e+00  7.86827240e+00  1.88128850e+00
  5.44249300e-01  7.86827240e+00  1.88128850e+00  5.44249300e-01  1.68714400e-01
  1.68714400e-01  8.00000000e-01  4.38000000e-02  4.38000000e-02  1.87311370e+01
  2.82539370e+00  6.40121700e-01  1.61277800e-01  1.87311370e+01  2.82539370e+00
  6.40121700e-01  1.61277800e-01  1.87311370e+01  2.82539370e+00  6.40121700e-01
  1.61277800e-01
Contraction coefficients                   R   N=         331
  1.83470016e-03  1.40373012e-02  6.88426061e-02  2.32184421e-01  4.67941342e-01
  3.62312032e-01 -1.19332409e-01 -1.60854212e-01  1.14345648e+00  6.89990956e-02
  3.16423980e-01  7.44308252e-01  1.00000000e+00  1.00000000e+00  1.00000000e+00
  1.00000000e+00  1.00000000e+00  1.83470016e-03  1.40373012e-02  6.88426061e-02
  2.32184421e-01  4.67941342e-01  3.62312032e-01 -1.19332409e-01 -1.60854212e-01
  1.14345648e+00  6.89990956e-02  3.16423980e-01  7.44308252e-01  1.00000000e+00
  1.00000000e+00  1.00000000e+00  1.00000000e+00  1.00000000e+00  1.83470016e-03
  1.40373012e-02  6.88426061e-02  2.32184421e-01  4.67941342e-01  3.62312032e-01
 -1.19332409e-01 -1.60854212e-01  1.14345648e+00  6.89990956e-02  3.16423980e-01
  7.44308252e-01  1.00000000e+00  1.00000000e+00  1.00000000e+00  1.00000000e+00
  1.00000000e+00  3.34945995e-02  2.34726947e-01  8.13757318e-01  1.00000000e+00
  3.34945995e-02  2.34726947e-01  8.13757318e-01  1.00000000e+00  1.83479944e-03
  1.39949958e-02  6.85869792e-02  2.32240930e-01  4.69069858e-01  3.60454891e-01
 -1.14961023e-01 -1.69118034e-01  1.14585223e+00  6.75800232e-02  3.23907111e-01
  7.40895255e-01  1.00000000e+00  1.00000000e+00  1.00000000e+00  1.00000000e+00
  1.00000000e+00  1.83470016e-03  1.40373012e-02  6.88426061e-02  2.32184421e-01
  4.67941342e-01  3.62312032e-01 -1.19332409e-01 -1.60854212e-01  1.14345648e+00
  6.89990956e-02  3.16423980e-01  7.44308252e-01  1.00000000e+00  1.00000000e+00
  1.00000000e+00  1.00000000e+00  1.00000000e+00  1.83470016e-03  1.40373012e-02
  6.88426061e-02  2.32184421e-01  4.67941342e-01  3.62312032e-01 -1.19332409e-01
 -1.60854212e-01  1.14345648e+00  6.89990956e-02  3.16423980e-01  7.44308252e-01
  1.00000000e+00  1.00000000e+00  1.00000000e+00  1.00000000e+00  1.00000000e+00
  1.83470016e-03  1.40373012e-02  6.88426061e-02  2.32184421e-01  4.67941342e-01
  3.62312032e-01 -1.19332409e-01 -1.60854212e-01  1.14345648e+00  6.89990956e-02
  3.16423980e-01  7.44308252e-01  1.00000000e+00  1.00000000e+00  1.00000000e+00
  1.00000000e+00  1.00000000e+00  1.83470016e-03  1.40373012e-02  6.88426061e-02
  2.32184421e-01  4.67941342e-01  3.62312032e-01 -1.19332409e-01 -1.60854212e-01
  1.14345648e+00  6.89990956e-02  3.16423980e-01  7.44308252e-01  1.00000000e+00
  1.00000000e+00  1.00000000e+00  1.00000000e+00  1.00000000e+00  1.83470016e-03
  1.40373012e-02  6.88426061e-02  2.32184421e-01  4.67941342e-01  3.62312032e-01
 -1.19332409e-01 -1.60854212e-01  1.14345648e+00  6.89990956e-02  3.16423980e-01
  7.44308252e-01  1.00000000e+00  1.00000000e+00  1.00000000e+00  1.00000000e+00
  1.00000000e+00  1.83470016e-03  1.40373012e-02  6.88426061e-02  2.32184421e-01
  4.67941342e-01  3.62312032e-01 -1.19332409e-01 -1.60854212e-01  1.14345648e+00
  6.89990956e-02  3.16423980e-01  7.44308252e-01  1.00000000e+00  1.00000000e+00
  1.00000000e+00  1.00000000e+00  1.00000000e+00  3.34945995e-02  2.34726947e-01
  8.13757318e-01  1.00000000e+00  3.34945995e-02  2.34726947e-01  8.13757318e-01
  1.00000000e+00  3.34945995e-02  2.34726947e-01  8.13757318e-01  1.00000000e+00
  3.34945995e-02  2.34726947e-01  8.13757318e-01  1.00000000e+00  3.34945995e-02
  2.34726947e-01  8.13757318e-01  1.00000000e+00  3.34945995e-02  2.34726947e-01
  8.13757318e-01  1.00000000e+00  3.34945995e-02  2.34726947e-01  8.13757318e-01
  1.00000000e+00  3.34945995e-02  2.34726947e-01  8.13757318e-01  1.00000000e+00
  1.83109981e-03  1.39500985e-02  6.84450927e-02  2.32714275e-01  4.70192950e-01
  3.58520862e-01 -1.10777504e-01 -1.48026305e-01  1.13076704e+00  7.08742995e-02
  3.39752798e-01  7.27158595e-01  1.00000000e+00  1.00000000e+00  1.00000000e+00
  1.00000000e+00  1.00000000e+00  1.83109981e-03  1.39500985e-02  6.84450927e-02
  2.32714275e-01  4.70192950e-01  3.58520862e-01 -1.10777504e-01 -1.48026305e-01
  1.13076704e+00  7.08742995e-02  3.39752798e-01  7.27158595e-01  1.00000000e+00
  1.00000000e+00  1.00000000e+00  1.00000000e+00  1.00000000e+00  1.83470016e-03
  1.40373012e-02  6.88426061e-02  2.32184421e-01  4.67941342e-01  3.62312032e-01
 -1.19332409e-01 -1.60854212e-01  1.14345648e+00  6.89990956e-02  3.16423980e-01
  7.44308252e-01  1.00000000e+00  1.00000000e+00  1.00000000e+00  1.00000000e+00
  1.00000000e+00  3.34945995e-02  2.34726947e-01  8.13757318e-01  1.00000000e+00
  3.34945995e-02  2.34726947e-01  8.13757318e-01  1.00000000e+00  3.34945995e-02
  2.34726947e-01  8.13757318e-01  1.00000000e+00  1.83470016e-03  1.40373012e-02
  6.88426061e-02  2.32184421e-01  4.67941342e-01  3.62312032e-01 -1.19332409e-01
 -1.60854212e-01  1.14345648e+00  6.89990956e-02  3.16423980e-01  7.44308252e-01
  1.00000000e+00  1.00000000e+00  1.00000000e+00  1.00000000e+00  1.00000000e+00
  3.34945995e-02  2.34726947e-01  8.13757318e-01  1.00000000e+00  3.34945995e-02
  2.34726947e-01  8.13757318e-01  1.00000000e+00  3.34945995e-02  2.34726947e-01
  8.13757318e-01  1.00000000e+00  1.83470016e-03  1.40373012e-02  6.88426061e-02
  2.32184421e-01  4.67941342e-01  3.62312032e-01 -1.19332409e-01 -1.60854212e-01
  1.14345648e+00  6.89990956e-02  3.16423980e-01  7.44308252e-01  1.00000000e+00
  1.00000000e+00  1.00000000e+00  1.00000000e+00  1.00000000e+00  3.34945995e-02
  2.34726947e-01  8.13757318e-01  1.00000000e+00  3.34945995e-02  2.34726947e-01
  8.13757318e-01  1.00000000e+00  3.34945995e-02  2.34726947e-01  8.13757318e-01
  1.00000000e+00
Coordinates of each shell                  R   N=         474
 -8.57231798e-02 -9.00060427e-01  9.58612575e-01 -8.57231798e-02 -9.00060427e-01
  9.58612575e-01 -8.57231798e-02 -9.00060427e-01  9.58612575e-01 -8.57231798e-02
 -9.00060427e-01  9.58612575e-01 -8.57231798e-02 -9.00060427e-01  9.58612575e-01
 -8.57231798e-02 -9.00060427e-01  9.58612575e-01 -8.57231798e-02 -9.00060427e-01
  9.58612575e-01 -8.57231798e-02 -9.00060427e-01  9.58612575e-01 -1.39884844e+00
 -1.84421682e+00  3.31852827e+00 -1.39884844e+00 -1.84421682e+00  3.31852827e+00
 -1.39884844e+00 -1.84421682e+00  3.31852827e+00 -1.39884844e+00 -1.84421682e+00
  3.31852827e+00 -1.39884844e+00 -1.84421682e+00  3.31852827e+00 -1.39884844e+00
 -1.84421682e+00  3.31852827e+00 -1.39884844e+00 -1.84421682e+00  3.31852827e+00
 -1.39884844e+00 -1.84421682e+00  3.31852827e+00 -3.86172712e+00 -4.00275512e-01
  4.02784595e+00 -3.86172712e+00 -4.00275512e-01  4.02784595e+00 -3.86172712e+00
 -4.00275512e-01  4.02784595e+00 -3.86172712e+00 -4.00275512e-01  4.02784595e+00
 -3.86172712e+00 -4.00275512e-01  4.02784595e+00 -3.86172712e+00 -4.00275512e-01
  4.02784595e+00 -3.86172712e+00 -4.00275512e-01  4.02784595e+00 -3.86172712e+00
 -4.00275512e-01  4.02784595e+00 -1.01511213e-01 -1.76609708e+00  4.93050224e+00
 -1.01511213e-01 -1.76609708e+00  4.93050224e+00 -1.90352393e+00 -3.84081255e+00
  3.04208342e+00 -1.90352393e+00 -3.84081255e+00  3.04208342e+00 -5.24284383e+00
 -1.57454441e+00  6.13520671e+00 -5.24284383e+00 -1.57454441e+00  6.13520671e+00
 -5.24284383e+00 -1.57454441e+00  6.13520671e+00 -5.24284383e+00 -1.57454441e+00
  6.13520671e+00 -5.24284383e+00 -1.57454441e+00  6.13520671e+00 -5.24284383e+00
 -1.57454441e+00  6.13520671e+00 -5.24284383e+00 -1.57454441e+00  6.13520671e+00
 -5.24284383e+00 -1.57454441e+00  6.13520671e+00  2.06221349e+00  6.57023826e-01
  1.06365493e+00  2.06221349e+00  6.57023826e-01  1.06365493e+00  2.06221349e+00
  6.57023826e-01  1.06365493e+00  2.06221349e+00  6.57023826e-01  1.06365493e+00
  2.06221349e+00  6.57023826e-01  1.06365493e+00  2.06221349e+00  6.57023826e-01
  1.06365493e+00  2.06221349e+00  6.57023826e-01  1.06365493e+00  2.06221349e+00
  6.57023826e-01  1.06365493e+00  3.20750386e+00  1.49815102e+00 -1.17200059e+00
  3.20750386e+00  1.49815102e+00 -1.17200059e+00  3.20750386e+00  1.49815102e+00
 -1.17200059e+00  3.20750386e+00  1.49815102e+00 -1.17200059e+00  3.20750386e+00
  1.49815102e+00 -1.17200059e+00  3.20750386e+00  1.49815102e+00 -1.17200059e+00
  3.20750386e+00  1.49815102e+00 -1.17200059e+00  3.20750386e+00  1.49815102e+00
 -1.17200059e+00  2.26770961e+00  8.39062919e-01 -3.55171345e+00  2.26770961e+00
  8.39062919e-01 -3.55171345e+00  2.26770961e+00  8.39062919e-01 -3.55171345e+00
  2.26770961e+00  8.39062919e-01 -3.55171345e+00  2.26770961e+00  8.39062919e-01
 -3.55171345e+00  2.26770961e+00  8.39062919e-01 -3.55171345e+00  2.26770961e+00
  8.39062919e-01 -3.55171345e+00  2.26770961e+00  8.39062919e-01 -3.55171345e+00
  1.19799880e-01 -7.20666440e-01 -3.65822168e+00  1.19799880e-01 -7.20666440e-01
 -3.65822168e+00  1.19799880e-01 -7.20666440e-01 -3.65822168e+00  1.19799880e-01
 -7.20666440e-01 -3.65822168e+00  1.19799880e-01 -7.20666440e-01 -3.65822168e+00
  1.19799880e-01 -7.20666440e-01 -3.65822168e+00  1.19799880e-01 -7.20666440e-01
 -3.65822168e+00  1.19799880e-01 -7.20666440e-01 -3.65822168e+00 -1.01756045e+00
 -1.56980153e+00 -1.43111543e+00 -1.01756045e+00 -1.56980153e+00 -1.43111543e+00
 -1.01756045e+00 -1.56980153e+00 -1.43111543e+00 -1.01756045e+00 -1.56980153e+00
 -1.43111543e+00 -1.01756045e+00 -1.56980153e+00 -1.43111543e+00 -1.01756045e+00
 -1.56980153e+00 -1.43111543e+00 -1.01756045e+00 -1.56980153e+00 -1.43111543e+00
 -1.01756045e+00 -1.56980153e+00 -1.43111543e+00 -3.38025619e+00  2.37742567e+00
  4.66972072e+00 -3.38025619e+00  2.37742567e+00  4.66972072e+00 -3.38025619e+00
  2.37742567e+00  4.66972072e+00 -3.38025619e+00  2.37742567e+00  4.66972072e+00
 -3.38025619e+00  2.37742567e+00  4.66972072e+00 -3.38025619e+00  2.37742567e+00
  4.66972072e+00 -3.38025619e+00  2.37742567e+00  4.66972072e+00 -3.38025619e+00
  2.37742567e+00  4.66972072e+00 -2.13957198e+00  2.54419486e+00  6.32516019e+00
 -2.13957198e+00  2.54419486e+00  6.32516019e+00 -5.16827715e+00  3.32680949e+00
  5.09803068e+00 -5.16827715e+00  3.32680949e+00  5.09803068e+00 -2.46013395e+00
  3.35990477e+00  3.09909652e+00 -2.46013395e+00  3.35990477e+00  3.09909652e+00
 -5.13292027e+00 -4.74139553e-01  2.38644359e+00 -5.13292027e+00 -4.74139553e-01
  2.38644359e+00 -4.19036261e+00 -1.49970745e+00  7.74921035e+00 -4.19036261e+00
 -1.49970745e+00  7.74921035e+00 -5.58556635e+00 -3.43719111e+00  5.78284761e+00
 -5.58556635e+00 -3.43719111e+00  5.78284761e+00 -2.66116793e+00 -2.79483401e+00
 -1.51271188e+00 -2.66116793e+00 -2.79483401e+00 -1.51271188e+00  4.87016499e+00
  2.69526849e+00 -1.09432033e+00  4.87016499e+00  2.69526849e+00 -1.09432033e+00
 -7.16402824e-01 -1.32106195e+00 -6.04567085e+00 -7.16402824e-01 -1.32106195e+00
 -6.04567085e+00 -7.16402824e-01 -1.32106195e+00 -6.04567085e+00 -7.16402824e-01
 -1.32106195e+00 -6.04567085e+00 -7.16402824e-01 -1.32106195e+00 -6.04567085e+00
 -7.16402824e-01 -1.32106195e+00 -6.04567085e+00 -7.16402824e-01 -1.32106195e+00
 -6.04567085e+00 -7.16402824e-01 -1.32106195e+00 -6.04567085e+00  2.93519993e+00
  1.27008124e+00  3.43756822e+00  2.93519993e+00  1.27008124e+00  3.43756822e+00
  2.93519993e+00  1.27008124e+00  3.43756822e+00  2.93519993e+00  1.27008124e+00
  3.43756822e+00  2.93519993e+00  1.27008124e+00  3.43756822e+00  2.93519993e+00
  1.27008124e+00  3.43756822e+00  2.93519993e+00  1.27008124e+00  3.43756822e+00
  2.93519993e+00  1.27008124e+00  3.43756822e+00 -2.88325716e+00 -2.88009334e+00
 -6.29126866e+00 -2.88325716e+00 -2.88009334e+00 -6.29126866e+00 -2.88325716e+00
 -2.88009334e+00 -6.29126866e+00 -2.88325716e+00 -2.88009334e+00 -6.29126866e+00
 -2.88325716e+00 -2.88009334e+00 -6.29126866e+00 -2.88325716e+00 -2.88009334e+00
 -6.29126866e+00 -2.88325716e+00 -2.88009334e+00 -6.29126866e+00 -2.88325716e+00
 -2.88009334e+00 -6.29126866e+00 -3.19953066e+00 -3.08892133e+00 -8.31944924e+00
 -3.19953066e+00 -3.08892133e+00 -8.31944924e+00 -4.55185369e+00 -2.00299948e+00
 -5.42178280e+00 -4.55185369e+00 -2.00299948e+00 -5.42178280e+00 -2.57206859e+00
 -4.75179566e+00 -5.44860152e+00 -2.57206859e+00 -4.75179566e+00 -5.44860152e+00
  5.13887555e+00  2.78037204e+00  3.64984971e+00  5.13887555e+00  2.78037204e+00
  3.64984971e+00  5.13887555e+00  2.78037204e+00  3.64984971e+00  5.13887555e+00
  2.78037204e+00  3.64984971e+00  5.13887555e+00  2.78037204e+00  3.64984971e+00
  5.13887555e+00  2.78037204e+00  3.64984971e+00  5.13887555e+00  2.78037204e+00
  3.64984971e+00  5.13887555e+00  2.78037204e+00  3.64984971e+00  5.48250991e+00
  2.99083717e+00  5.67365831e+00  5.48250991e+00  2.99083717e+00  5.67365831e+00
  4.86197910e+00  4.65581121e+00  2.80369038e+00  4.86197910e+00  4.65581121e+00
  2.80369038e+00  6.77841861e+00  1.86275115e+00  2.76667667e+00  6.77841861e+00
  1.86275115e+00  2.76667667e+00  3.51110950e+00  1.75386438e+00 -5.94785953e+00
  3.51110950e+00  1.75386438e+00 -5.94785953e+00  3.51110950e+00  1.75386438e+00
 -5.94785953e+00  3.51110950e+00  1.75386438e+00 -5.94785953e+00  3.51110950e+00
  1.75386438e+00 -5.94785953e+00  3.51110950e+00  1.75386438e+00 -5.94785953e+00
  3.51110950e+00  1.75386438e+00 -5.94785953e+00  3.51110950e+00  1.75386438e+00
 -5.94785953e+00  5.15255795e+00  2.93915236e+00 -5.52043342e+00  5.15255795e+00
  2.93915236e+00 -5.52043342e+00  2.19500025e+00  2.85897519e+00 -7.10719229e+00
  2.19500025e+00  2.85897519e+00 -7.10719229e+00  4.14262916e+00  1.67952207e-01
 -7.12412848e+00  4.14262916e+00  1.67952207e-01 -7.12412848e+00
Total Energy                               R     -6.739226913888995e+02
Alpha Orbital Energies                     R   N=         323
 -1.91825902e+01 -1.91818370e+01 -1.43174853e+01 -1.02435772e+01 -1.02435055e+01
 -1.02433579e+01 -1.02424408e+01 -1.02144833e+01 -1.01974555e+01 -1.01947665e+01
 -1.01900810e+01 -1.01899955e+01 -1.01831553e+01 -1.01815559e+01 -1.01674084e+01
 -1.06462991e+00 -1.06369073e+00 -8.86119359e-01 -8.55882604e-01 -7.93492036e-01
 -7.53868020e-01 -7.40751698e-01 -7.20864419e-01 -7.05455567e-01 -6.88423937e-01