Generated by Psi4
     FORCE                           RHF                       TESTBAS
Number of atoms                            I               23
Charge                                     I                0
Multiplicity                               I                1
Number of electrons                        I               74
Number of alpha electrons                  I               37
Number of beta electrons                   I               37
Number of basis functions                  I              216
Number of independent functions            I              216
Atomic numbers                             I   N=          23
           6           6           6           1           1           7
           6           6           6           6           6           1
           1           1           1           1           6           1
           1           1           1           1           1
Nuclear charges                            R   N=          23
  6.00000000e+00  6.00000000e+00  6.00000000e+00  1.00000000e+00  1.00000000e+00
  7.00000000e+00  6.00000000e+00  6.00000000e+00  6.00000000e+00  6.00000000e+00
  6.00000000e+00  1.00000000e+00  1.00000000e+00  1.00000000e+00  1.00000000e+00
  1.00000000e+00  6.00000000e+00  1.00000000e+00  1.00000000e+00  1.00000000e+00
  1.00000000e+00  1.00000000e+00  1.00000000e+00
Current cartesian coordinates              R   N=          69
  7.24036188e-01 -8.12765721e-01 -2.39456758e-01 -1.07804249e+00 -1.79626536e+00
  1.75416230e+00 -3.44382162e+00 -1.11468498e-01  2.22383315e+00 -7.46983214e-02
 -2.03316083e+00  3.55768444e+00 -1.74799992e+00 -3.68221020e+00  1.19722758e+00
 -5.31706075e+00 -1.29401427e+00  3.89900584e+00  3.02763638e+00  3.23175381e-01
  4.16572782e-01  4.66333810e+00  1.26083762e+00 -1.43404398e+00  4.01992800e+00
  1.07833479e+00 -3.98815405e+00  1.73359218e+00 -5.57734226e-02 -4.67327856e+00
  1.09712558e-01 -9.92607380e-01 -2.81543400e+00  3.55000896e+00  4.69762272e-01
  2.40017390e+00 -1.65582480e+00 -1.88919251e+00 -3.37350455e+00  6.44146267e+00
  2.12792229e+00 -8.78286846e-01  5.28995517e+00  1.80242869e+00 -5.43118061e+00
  1.21926347e+00 -2.20926395e-01 -6.65586836e+00 -2.75221360e+00  2.48434273e+00
  3.29409751e+00 -4.39013950e+00  1.70767196e-01  3.97200691e-01 -1.82938237e+00
  2.29234912e+00  5.14590216e+00 -4.45739479e+00  3.62759552e+00  3.54644893e+00
 -1.45067071e+00  3.49355917e+00  2.04287395e+00 -4.58089494e+00 -1.55390763e+00
  5.66180939e+00 -5.83398146e+00 -3.03084866e+00  3.24691205e+00
Integer atomic weights                     I   N=          23
          12          12          12           1           1          14
          12          12          12          12          12           1
           1           1           1           1          12           1
           1           1           1           1           1
Real atomic weights                        R   N=          23
  1.20000000e+01  1.20000000e+01  1.20000000e+01  1.00782503e+00  1.00782503e+00
  1.40030740e+01  1.20000000e+01  1.20000000e+01  1.20000000e+01  1.20000000e+01
  1.20000000e+01  1.00782503e+00  1.00782503e+00  1.00782503e+00  1.00782503e+00
  1.00782503e+00  1.20000000e+01  1.00782503e+00  1.00782503e+00  1.00782503e+00
  1.00782503e+00  1.00782503e+00  1.00782503e+00
Number of primitive shells                 I              222
Number of contracted shells                I              106
Pure/Cartesian d shells                    I                1
Pure/Cartesian f shells                    I                1
Highest angular momentum                   I                2
Largest degree of contraction              I                6
Shell types                                I   N=         106
           0           0           1           0           1           2
           0           1           0           0           1           0
           1           2           0           1           0           0
           1           0           1           2           0           1
           0           0           0           0           0           0
           1           0           1           2           0           1
           0           0           1           0           1           2
           0           1           0           0           1           0
           1           2           0           1           0           0
           1           0           1           2           0           1
           0           0           1           0           1           2
           0           1           0           0           1           0
           1           2           0           1           0           0
           0           0           0           0           0           0
           0           0           0           0           1           0
           1           2           0           1           0           0
           0           0           0           0           0           0
           0           0           0           0
Number of primitives per shell             I   N=         106
           6           3           3           1           1           1
           1           1           6           3           3           1
           1           1           1           1           6           3
           3           1           1           1           1           1
           3           1           3           1           6           3
           3           1           1           1           1           1
           6           3           3           1           1           1
           1           1           6           3           3           1
           1           1           1           1           6           3
           3           1           1           1           1           1
           6           3           3           1           1           1
           1           1           6           3           3           1
           1           1           1           1           3           1
           3           1           3           1           3           1
           3           1           6           3           3           1
           1           1           1           1           3           1
           3           1           3           1           3           1
           3           1           3           1
Shell to atom map                          I   N=         106
           1           1           1           1           1           1
           1           1           2           2           2           2
           2           2           2           2           3           3
           3           3           3           3           3           3
           4           4           5           5           6           6
           6           6           6           6           6           6
           7           7           7           7           7           7
           7           7           8           8           8           8
           8           8           8           8           9           9
           9           9           9           9           9           9
          10          10          10          10          10          10
          10          10          11          11          11          11
          11          11          11          11          12          12
          13          13          14          14          15          15
          16          16          17          17          17          17
          17          17          17          17          18          18
          19          19          20          20          21          21
          22          22          23          23
Primitive exponents                        R   N=         222
  3.04752490e+03  4.57369510e+02  1.03948690e+02  2.92101550e+01  9.28666300e+00
  3.16392700e+00  7.86827240e+00  1.88128850e+00  5.44249300e-01  7.86827240e+00
  1.88128850e+00  5.44249300e-01  1.68714400e-01  1.68714400e-01  8.00000000e-01
  4.38000000e-02  4.38000000e-02  3.04752490e+03  4.57369510e+02  1.03948690e+02
  2.92101550e+01  9.28666300e+00  3.16392700e+00  7.86827240e+00  1.88128850e+00
  5.44249300e-01  7.86827240e+00  1.88128850e+00  5.44249300e-01  1.68714400e-01
  1.68714400e-01  8.00000000e-01  4.38000000e-02  4.38000000e-02  3.04752490e+03
  4.57369510e+02  1.03948690e+02  2.92101550e+01  9.28666300e+00  3.16392700e+00
  7.86827240e+00  1.88128850e+00  5.44249300e-01  7.86827240e+00  1.88128850e+00
  5.44249300e-01  1.68714400e-01  1.68714400e-01  8.00000000e-01  4.38000000e-02
  4.38000000e-02  1.87311370e+01  2.82539370e+00  6.40121700e-01  1.61277800e-01
  1.87311370e+01  2.82539370e+00  6.40121700e-01  1.61277800e-01  4.17351100e+03
  6.27457900e+02  1.42902100e+02  4.02343300e+01  1.28202100e+01  4.39043700e+00
  1.16263580e+01  2.71628000e+00  7.72218000e-01  1.16263580e+01  2.71628000e+00
  7.72218000e-01  2.12031300e-01  2.12031300e-01  8.00000000e-01  6.39000000e-02
  6.39000000e-02  3.04752490e+03  4.57369510e+02  1.03948690e+02  2.92101550e+01
  9.28666300e+00  3.16392700e+00  7.86827240e+00  1.88128850e+00  5.44249300e-01
  7.86827240e+00  1.88128850e+00  5.44249300e-01  1.68714400e-01  1.68714400e-01
  8.00000000e-01  4.38000000e-02  4.38000000e-02  3.04752490e+03  4.57369510e+02
  1.03948690e+02  2.92101550e+01  9.28666300e+00  3.16392700e+00  7.86827240e+00
  1.88128850e+00  5.44249300e-01  7.86827240e+00  1.88128850e+00  5.44249300e-01
  1.68714400e-01  1.68714400e-01  8.00000000e-01  4.38000000e-02  4.38000000e-02
  3.04752490e+03  4.57369510e+02  1.03948690e+02  2.92101550e+01  9.28666300e+00
  3.16392700e+00  7.86827240e+00  1.88128850e+00  5.44249300e-01  7.86827240e+00
  1.88128850e+00  5.44249300e-01  1.68714400e-01  1.68714400e-01  8.00000000e-01
  4.38000000e-02  4.38000000e-02  3.04752490e+03  4.57369510e+02  1.03948690e+02
  2.92101550e+01  9.28666300e+00  3.16392700e+00  7.86827240e+00  1.88128850e+00
  5.44249300e-01  7.86827240e+00  1.88128850e+00  5.44249300e-01  1.68714400e-01
  1.68714400e-01  8.00000000e-01  4.38000000e-02  4.38000000e-02  3.04752490e+03
  4.57369510e+02  1.03948690e+02  2.92101550e+01  9.28666300e+00  3.16392700e+00
  7.86827240e+00  1.88128850e+00  5.44249300e-01  7.86827240e+00  1.88128850e+00
  5.44249300e-01  1.68714400e-01  1.68714400e-01  8.00000000e-01  4.38000000e-02
  4.38000000e-02  1.87311370e+01  2.82539370e+00  6.40121700e-01  1.61277800e-01
  1.87311370e+01  2.82539370e+00  6.40121700e-01  1.61277800e-01  1.87311370e+01
  2.82539370e+00  6.40121700e-01  1.61277800e-01  1.87311370e+01  2.82539370e+00
  6.40121700e-01  1.61277800e-01  1.87311370e+01  2.82539370e+00  6.40121700e-01
  1.61277800e-01  3.04752490e+03  4.57369510e+02  1.03948690e+02  2.92101550e+01
  9.28666300e+00  3.16392700e+00  7.86827240e+00  1.88128850e+00  5.44249300e-01
  7.86827240e+00  1.88128850e+00  5.44249300e-01  1.68714400e-01  1.68714400e-01
  8.00000000e-01  4.38000000e-02  4.38000000e-02  1.87311370e+01  2.82539370e+00
  6.40121700e-01  1.61277800e-01  1.87311370e+01  2.82539370e+00  6.40121700e-01
  1.61277800e-01  1.87311370e+01  2.82539370e+00  6.40121700e-01  1.61277800e-01
  1.87311370e+01  2.82539370e+00  6.40121700e-01  1.61277800e-01  1.87311370e+01
  2.82539370e+00  6.40121700e-01  1.61277800e-01  1.87311370e+01  2.82539370e+00
  6.40121700e-01  1.61277800e-01
Contraction coefficients                   R   N=         222
  1.83470016e-03  1.40373012e-02  6.88426061e-02  2.32184421e-01  4.67941342e-01
  3.62312032e-01 -1.19332409e-01 -1.60854212e-01  1.14345648e+00  6.89990956e-02
  3.16423980e-01  7.44308252e-01  1.00000000e+00  1.00000000e+00  1.00000000e+00
  1.00000000e+00  1.00000000e+00  1.83470016e-03  1.40373012e-02  6.88426061e-02
  2.32184421e-01  4.67941342e-01  3.62312032e-01 -1.19332409e-01 -1.60854212e-01
  1.14345648e+00  6.89990956e-02  3.16423980e-01  7.44308252e-01  1.00000000e+00
  1.00000000e+00  1.00000000e+00  1.00000000e+00  1.00000000e+00  1.83470016e-03
  1.40373012e-02  6.88426061e-02  2.32184421e-01  4.67941342e-01  3.62312032e-01
 -1.19332409e-01 -1.60854212e-01  1.14345648e+00  6.89990956e-02  3.16423980e-01
  7.44308252e-01  1.00000000e+00  1.00000000e+00  1.00000000e+00  1.00000000e+00
  1.00000000e+00  3.34945995e-02  2.34726947e-01  8.13757318e-01  1.00000000e+00
  3.34945995e-02  2.34726947e-01  8.13757318e-01  1.00000000e+00  1.83479944e-03
  1.39949958e-02  6.85869792e-02  2.32240930e-01  4.69069858e-01  3.60454891e-01
 -1.14961023e-01 -1.69118034e-01  1.14585223e+00  6.75800232e-02  3.23907111e-01
  7.40895255e-01  1.00000000e+00  1.00000000e+00  1.00000000e+00  1.00000000e+00
  1.00000000e+00  1.83470016e-03  1.40373012e-02  6.88426061e-02  2.32184421e-01
  4.67941342e-01  3.62312032e-01 -1.19332409e-01 -1.60854212e-01  1.14345648e+00
  6.89990956e-02  3.16423980e-01  7.44308252e-01  1.00000000e+00  1.00000000e+00
  1.00000000e+00  1.00000000e+00  1.00000000e+00  1.83470016e-03  1.40373012e-02
  6.88426061e-02  2.32184421e-01  4.67941342e-01  3.62312032e-01 -1.19332409e-01
 -1.60854212e-01  1.14345648e+00  6.89990956e-02  3.16423980e-01  7.44308252e-01
  1.00000000e+00  1.00000000e+00  1.00000000e+00  1.00000000e+00  1.00000000e+00
  1.83470016e-03  1.40373012e-02  6.88426061e-02  2.32184421e-01  4.67941342e-01
  3.62312032e-01 -1.19332409e-01 -1.60854212e-01  1.14345648e+00  6.89990956e-02
  3.16423980e-01  7.44308252e-01  1.00000000e+00  1.00000000e+00  1.00000000e+00
  1.00000000e+00  1.00000000e+00  1.83470016e-03  1.40373012e-02  6.88426061e-02
  2.32184421e-01  4.67941342e-01  3.62312032e-01 -1.19332409e-01 -1.60854212e-01
  1.14345648e+00  6.89990956e-02  3.16423980e-01  7.44308252e-01  1.00000000e+00
  1.00000000e+00  1.00000000e+00  1.00000000e+00  1.00000000e+00  1.83470016e-03
  1.40373012e-02  6.88426061e-02  2.32184421e-01  4.67941342e-01  3.62312032e-01
 -1.19332409e-01 -1.60854212e-01  1.14345648e+00  6.89990956e-02  3.16423980e-01
  7.44308252e-01  1.00000000e+00  1.00000000e+00  1.00000000e+00  1.00000000e+00
  1.00000000e+00  3.34945995e-02  2.34726947e-01  8.13757318e-01  1.00000000e+00
  3.34945995e-02  2.34726947e-01  8.13757318e-01  1.00000000e+00  3.34945995e-02
  2.34726947e-01  8.13757318e-01  1.00000000e+00  3.34945995e-02  2.34726947e-01
  8.13757318e-01  1.00000000e+00  3.34945995e-02  2.34726947e-01  8.13757318e-01
  1.00000000e+00  1.83470016e-03  1.40373012e-02  6.88426061e-02  2.32184421e-01
  4.67941342e-01  3.62312032e-01 -1.19332409e-01 -1.60854212e-01  1.14345648e+00
  6.89990956e-02  3.16423980e-01  7.44308252e-01  1.00000000e+00  1.00000000e+00
  1.00000000e+00  1.00000000e+00  1.00000000e+00  3.34945995e-02  2.34726947e-01
  8.13757318e-01  1.00000000e+00  3.34945995e-02  2.34726947e-01  8.13757318e-01
  1.00000000e+00  3.34945995e-02  2.34726947e-01  8.13757318e-01  1.00000000e+00
  3.34945995e-02  2.34726947e-01  8.13757318e-01  1.00000000e+00  3.34945995e-02
  2.34726947e-01  8.13757318e-01  1.00000000e+00  3.34945995e-02  2.34726947e-01
  8.13757318e-01  1.00000000e+00
Coordinates of each shell                  R   N=         318
  7.24036188e-01 -8.12765721e-01 -2.39456758e-01  7.24036188e-01 -8.12765721e-01
 -2.39456758e-01  7.24036188e-01 -8.12765721e-01 -2.39456758e-01  7.24036188e-01
 -8.12765721e-01 -2.39456758e-01  7.24036188e-01 -8.12765721e-01 -2.39456758e-01
  7.24036188e-01 -8.12765721e-01 -2.39456758e-01  7.24036188e-01 -8.12765721e-01
 -2.39456758e-01  7.24036188e-01 -8.12765721e-01 -2.39456758e-01 -1.07804249e+00
 -1.79626536e+00  1.75416230e+00 -1.07804249e+00 -1.79626536e+00  1.75416230e+00
 -1.07804249e+00 -1.79626536e+00  1.75416230e+00 -1.07804249e+00 -1.79626536e+00
  1.75416230e+00 -1.07804249e+00 -1.79626536e+00  1.75416230e+00 -1.07804249e+00
 -1.79626536e+00  1.75416230e+00 -1.07804249e+00 -1.79626536e+00  1.75416230e+00
 -1.07804249e+00 -1.79626536e+00  1.75416230e+00 -3.44382162e+00 -1.11468498e-01
  2.22383315e+00 -3.44382162e+00 -1.11468498e-01  2.22383315e+00 -3.44382162e+00
 -1.11468498e-01  2.22383315e+00 -3.44382162e+00 -1.11468498e-01  2.22383315e+00
 -3.44382162e+00 -1.11468498e-01  2.22383315e+00 -3.44382162e+00 -1.11468498e-01
  2.22383315e+00 -3.44382162e+00 -1.11468498e-01  2.22383315e+00 -3.44382162e+00
 -1.11468498e-01  2.22383315e+00 -7.46983214e-02 -2.03316083e+00  3.55768444e+00
 -7.46983214e-02 -2.03316083e+00  3.55768444e+00 -1.74799992e+00 -3.68221020e+00
  1.19722758e+00 -1.74799992e+00 -3.68221020e+00  1.19722758e+00 -5.31706075e+00
 -1.29401427e+00  3.89900584e+00 -5.31706075e+00 -1.29401427e+00  3.89900584e+00
 -5.31706075e+00 -1.29401427e+00  3.89900584e+00 -5.31706075e+00 -1.29401427e+00
  3.89900584e+00 -5.31706075e+00 -1.29401427e+00  3.89900584e+00 -5.31706075e+00
 -1.29401427e+00  3.89900584e+00 -5.31706075e+00 -1.29401427e+00  3.89900584e+00
 -5.31706075e+00 -1.29401427e+00  3.89900584e+00  3.02763638e+00  3.23175381e-01
  4.16572782e-01  3.02763638e+00  3.23175381e-01  4.16572782e-01  3.02763638e+00
  3.23175381e-01  4.16572782e-01  3.02763638e+00  3.23175381e-01  4.16572782e-01
  3.02763638e+00  3.23175381e-01  4.16572782e-01  3.02763638e+00  3.23175381e-01
  4.16572782e-01  3.02763638e+00  3.23175381e-01  4.16572782e-01  3.02763638e+00
  3.23175381e-01  4.16572782e-01  4.66333810e+00  1.26083762e+00 -1.43404398e+00
  4.66333810e+00  1.26083762e+00 -1.43404398e+00  4.66333810e+00  1.26083762e+00
 -1.43404398e+00  4.66333810e+00  1.26083762e+00 -1.43404398e+00  4.66333810e+00
  1.26083762e+00 -1.43404398e+00  4.66333810e+00  1.26083762e+00 -1.43404398e+00
  4.66333810e+00  1.26083762e+00 -1.43404398e+00  4.66333810e+00  1.26083762e+00
 -1.43404398e+00  4.01992800e+00  1.07833479e+00 -3.98815405e+00  4.01992800e+00
  1.07833479e+00 -3.98815405e+00  4.01992800e+00  1.07833479e+00 -3.98815405e+00
  4.01992800e+00  1.07833479e+00 -3.98815405e+00  4.01992800e+00  1.07833479e+00
 -3.98815405e+00  4.01992800e+00  1.07833479e+00 -3.98815405e+00  4.01992800e+00
  1.07833479e+00 -3.98815405e+00  4.01992800e+00  1.07833479e+00 -3.98815405e+00
  1.73359218e+00 -5.57734226e-02 -4.67327856e+00  1.73359218e+00 -5.57734226e-02
 -4.67327856e+00  1.73359218e+00 -5.57734226e-02 -4.67327856e+00  1.73359218e+00
 -5.57734226e-02 -4.67327856e+00  1.73359218e+00 -5.57734226e-02 -4.67327856e+00
  1.73359218e+00 -5.57734226e-02 -4.67327856e+00  1.73359218e+00 -5.57734226e-02
 -4.67327856e+00  1.73359218e+00 -5.57734226e-02 -4.67327856e+00  1.09712558e-01
 -9.92607380e-01 -2.81543400e+00  1.09712558e-01 -9.92607380e-01 -2.81543400e+00
  1.09712558e-01 -9.92607380e-01 -2.81543400e+00  1.09712558e-01 -9.92607380e-01
 -2.81543400e+00  1.09712558e-01 -9.92607380e-01 -2.81543400e+00  1.09712558e-01
 -9.92607380e-01 -2.81543400e+00  1.09712558e-01 -9.92607380e-01 -2.81543400e+00
  1.09712558e-01 -9.92607380e-01 -2.81543400e+00  3.55000896e+00  4.69762272e-01
  2.40017390e+00  3.55000896e+00  4.69762272e-01  2.40017390e+00 -1.65582480e+00
 -1.88919251e+00 -3.37350455e+00 -1.65582480e+00 -1.88919251e+00 -3.37350455e+00
  6.44146267e+00  2.12792229e+00 -8.78286846e-01  6.44146267e+00  2.12792229e+00
 -8.78286846e-01  5.28995517e+00  1.80242869e+00 -5.43118061e+00  5.28995517e+00
  1.80242869e+00 -5.43118061e+00  1.21926347e+00 -2.20926395e-01 -6.65586836e+00
  1.21926347e+00 -2.20926395e-01 -6.65586836e+00 -2.75221360e+00  2.48434273e+00
  3.29409751e+00 -2.75221360e+00  2.48434273e+00  3.29409751e+00 -2.75221360e+00
  2.48434273e+00  3.29409751e+00 -2.75221360e+00  2.48434273e+00  3.29409751e+00
 -2.75221360e+00  2.48434273e+00  3.29409751e+00 -2.75221360e+00  2.48434273e+00
  3.29409751e+00 -2.75221360e+00  2.48434273e+00  3.29409751e+00 -2.75221360e+00
  2.48434273e+00  3.29409751e+00 -4.39013950e+00  1.70767196e-01  3.97200691e-01
 -4.39013950e+00  1.70767196e-01  3.97200691e-01 -1.82938237e+00  2.29234912e+00
  5.14590216e+00 -1.82938237e+00  2.29234912e+00  5.14590216e+00 -4.45739479e+00
  3.62759552e+00  3.54644893e+00 -4.45739479e+00  3.62759552e+00  3.54644893e+00
 -1.45067071e+00  3.49355917e+00  2.04287395e+00 -1.45067071e+00  3.49355917e+00
  2.04287395e+00 -4.58089494e+00 -1.55390763e+00  5.66180939e+00 -4.58089494e+00
 -1.55390763e+00  5.66180939e+00 -5.83398146e+00 -3.03084866e+00  3.24691205e+00
 -5.83398146e+00 -3.03084866e+00  3.24691205e+00
Total Energy                               R     -4.055544862638752e+02
Alpha Orbital Energies                     R   N=         216
 -1.43233283e+01 -1.02218366e+01 -1.02035329e+01 -1.01977954e+01 -1.01974578e+01
 -1.01959504e+01 -1.01954475e+01 -1.01951603e+01 -1.01926227e+01 -1.01754886e+01
 -8.92808366e-01 -8.59656068e-01 -7.82564172e-01 -7.49312862e-01 -7.33292004e-01
 -6.85899042e-01 -6.12033504e-01 -6.01169465e-01 -5.75837446e-01 -5.17047300e-01
 -4.99077258e-01 -4.64286041e-01 -4.62864304e-01 -4.56404682e-01 -4.32124737e-01
 -4.24682740e-01 -4.08825105e-01 -3.93828395e-01 -3.72185627e-01 -3.71082442e-01
 -3.51827959e-01 -3.48968446e-01 -3.43124177e-01 -3.36399435e-01 -2.58639828e-01
 -2.56240003e-01 -2.35163167e-01 -1.75609026e-02 -1.40057386e-02 -8.12900131e-04
  9.33510098e-03  1.64574646e-02  3.05938763e-02  3.35016372e-02  3.76846409e-02
  4.63920660e-02  5.63686981e-02  6.04833801e-02  6.41577435e-02  6.84085469e-02
  7.99916000e-02  9.51032337e-02  9.57298043e-02  9.79858575e-02  1.06852120e-01
  1.12163499e-01  1.18223952e-01  1.27239424e-01  1.30022661e-01  1.34989950e-01
  1.40469581e-01  1.45307227e-01  1.53382058e-01  1.59552555e-01  1.63085301e-01
  1.72733205e-01  1.77615522e-01  1.79344839e-01  1.86699497e-01  1.96754362e-01
  2.02527827e-01  2.03736394e-01  2.06401500e-01  2.12495702e-01  2.18242315e-01
  2.21696534e-01  2.23302973e-01  2.36208175e-01  2.38675740e-01  2.45942452e-01
  2.50149475e-01  2.53458989e-01  2.58732323e-01  2.70812457e-01  2.77060290e-01
  2.79505321e-01  2.84734159e-01  2.90855267e-01  2.98234848e-01  3.07377454e-01
  3.10927150e-01  3.29789838e-01  3.33030643e-01  3.49849889e-01  3.52241501e-01
  3.62442300e-01  3.66728095e-01  3.78176115e-01  3.81723625e-01  3.93663226e-01
  4.60143577e-01  5.64659997e-01  6.00277183e-01  6.36703307e-01  6.46705463e-01
  6.69702146e-01  6.76816140e-01  6.87529594e-01  6.93721824e-01  7.04159225e-01
  7.24436562e-01  7.32190062e-01  7.37764692e-01  7.44717773e-01  7.48849550e-01
  7.62090429e-01  7.78313032e-01  7.86098407e-01  7.96708044e-01  8.00684029e-01
  8.17250461e-01  8.24846299e-01  8.87275695e-01  8.99764265e-01  9.26617357e-01
  9.32872242e-01  9.43429060e-01  9.52754999e-01  9.68498502e-01  9.79520510e-01
  9.86211199e-01  1.00046687e+00  1.01222473e+00  1.02864708e+00  1.03815170e+00
  1.05626605e+00  1.05915239e+00  1.08138416e+00  1.09554342e+00  1.12358078e+00
  1.13231195e+00  1.13992876e+00  1.15574629e+00  1.17902904e+00  1.18606464e+00
  1.19569794e+00  1.20285928e+00  1.25847937e+00  1.26665340e+00  1.29465160e+00
  1.35511414e+00  1.39898702e+00  1.42767939e+00  1.44406440e+00  1.46745504e+00
  1.48137857e+00  1.48398200e+00  1.50507554e+00  1.51105853e+00  1.56872474e+00
  1.57764703e+00  1.63262205e+00  1.71768076e+00  1.79578233e+00  1.81101635e+00
  1.84036708e+00  1.85390260e+00  1.86807299e+00  1.90559507e+00  1.92097472e+00
  1.95756284e+00  1.96840629e+00  1.99939369e+00  2.02204851e+00  2.05308653e+00
  2.07762738e+00  2.10353024e+00  2.10630786e+00  2.14501823e+00  2.15974406e+00
  2.17255348e+00  2.18215496e+00  2.21104555e+00  2.22215844e+00  2.25378623e+00
  2.28365186e+00  2.30770606e+00  2.33245668e+00  2.34822631e+00  2.41505840e+00
  2.42085600e+00  2.52321529e+00  2.57384179e+00  2.59964104e+00  2.61398711e+00
  2.61899325e+00  2.65619566e+00  2.74178280e+00  2.75045672e+00  2.75561776e+00
  2.75661837e+00  2.78006957e+00  2.83919255e+00  2.95900851e+00  3.05779024e+00
  3.39925274e+00  3.98587986e+00  4.22986816e+00  4.24983129e+00  4.26017602e+00
  4.30925118e+00  4.37879983e+00  4.38798496e+00  4.48469866e+00  4.61056049e+00
  4.71467250e+00
Alpha MO coefficients                      R   N=       46656
  1.41778865e-06  1.42466996e-05 -8.00560117e-06 -4.16862016e-06  1.42030588e-05
  3.05922432e-06  3.56747217e-04  1.76996308e-04 -5.58049860e-04 -9.48101117e-06
  3.97033943e-06 -5.77853818e-06 -9.25980511e-06  2.24231478e-05  9.95919401e-06
  7.20413125e-03 -1.48041151e-04 -6.31733854e-04  1.48985790e-03 -4.51020893e-06
 -8.87647957e-05 -4.85993993e-05 -4.93508186e-06  2.49312940e-05  6.92140794e-04
  1.85166826e-04  2.83055152e-04 -2.09733711e-04  5.55816648e-05  6.26383934e-06
  3.74923079e-05  5.49711126e-06 -4.30607831e-05 -8.73637165e-06 -5.55633312e-03
 -1.69074489e-03 -5.54743658e-04  2.39678270e-03  2.37464200e-05  1.79994957e-05
  1.81605986e-04  9.90620532e-05 -1.53694265e-04 -6.03425609e-04 -9.86605345e-05
  2.46585907e-04 -2.32670905e-04 -3.47163124e-05 -3.20187952e-06 -1.97913039e-05
 -6.77918199e-05  1.06434635e-04  6.55846635e-05 -7.14859654e-03  1.00705704e-03
 -1.36680431e-04 -2.31566308e-03 -3.15188062e-05  1.69153526e-04 -1.25002435e-05
  2.05993335e-04 -9.92658211e-01 -3.46271943e-02 -9.43179936e-04  7.78660503e-04
  3.00742849e-05 -4.28625391e-03  8.75730532e-04 -5.05835501e-04 -1.87666141e-04
  8.40223755e-03  8.31392691e-03  8.35012698e-03  3.86464507e-05 -7.70214704e-05
 -2.56566933e-05  4.70434030e-03 -5.80059058e-05  7.81151895e-04 -3.92328222e-04
  9.79538265e-07  6.36079428e-06  2.11465467e-06 -3.07403530e-07 -8.91498015e-07
 -1.91076524e-04  5.87995726e-06  4.98935622e-06  2.50331393e-04  2.51364375e-06
  2.51043836e-06 -5.18489681e-06 -2.69808236e-06 -8.09609845e-06 -5.46930887e-06
 -2.71410166e-03  5.11303257e-04  3.30175902e-04  2.44425201e-04 -5.99819949e-07
 -3.12155371e-06 -3.95433882e-06 -5.30842292e-06  2.58685886e-06  1.99649913e-04
 -6.67209871e-05 -2.70124443e-05  1.13808051e-05 -4.98805329e-07  7.43606746e-07
 -1.25375512e-06 -2.15950205e-06 -5.05319563e-08 -4.42405645e-07  2.85540882e-03
 -2.75556553e-04 -1.13419487e-04 -6.01211582e-04  6.26740982e-08  1.84446063e-06
  7.24480846e-07 -2.02839996e-06  2.89412870e-07 -8.74974789e-05  4.92214723e-05
  3.23346269e-05 -3.51522711e-05 -1.38195737e-06 -5.42083867e-08 -1.03607288e-06
 -1.77495660e-06 -5.85969212e-07  3.82049892e-07 -1.10642860e-03 -3.97984329e-04
 -1.27124778e-04 -1.01934729e-03 -2.99632632e-06 -1.33472168e-05  2.48686430e-07
 -3.82560351e-06  3.28729232e-06  2.60127689e-04  4.69039415e-06  3.99420165e-06
  1.22479728e-04 -4.71199741e-06 -2.59647937e-06 -2.42194463e-06 -2.53997334e-07
 -2.47023367e-06 -1.01141001e-06  6.58151401e-03 -1.69558391e-03 -9.10707737e-04
  1.43198650e-03  1.91147576e-06  1.55307678e-05  4.19795498e-06 -2.46524575e-06
  3.59275013e-07 -3.49590388e-04 -2.71892783e-04 -1.06835727e-04 -1.34596639e-04
 -4.41294072e-06  5.42211770e-06 -8.30071523e-06 -4.41566566e-06 -9.26545163e-06
 -1.52937120e-06 -6.57208290e-03 -1.66839695e-03 -1.04615596e-03  2.35012129e-03
 -1.02300881e-05 -7.54828032e-05 -1.01673401e-05 -1.04927872e-04  2.21757127e-06
 -1.41844238e-05 -2.71305882e-07 -2.83172352e-05  4.20002454e-06  1.96594361e-06
 -2.98300783e-06 -7.06885745e-05 -1.91367599e-05 -1.50704074e-05  5.02384980e-06
  1.15717756e-04  2.36305806e-05 -1.33878079e-04  5.05432948e-05  2.47147986e-05
  5.73346947e-05 -4.87949414e-06  3.01868082e-05 -4.92273709e-06 -2.13750688e-05
  3.30325422e-03 -2.75136495e-04 -7.60443001e-04 -4.00474583e-05  1.96478471e-05
 -8.72935106e-05 -2.49261411e-05  1.96395797e-06 -1.74660912e-05  1.46512025e-05
  9.44952279e-07 -1.06458240e-05 -2.67562042e-04  1.53053336e-04 -2.57135690e-04
  7.85641305e-06 -2.06435785e-04 -2.14940724e-04  1.62166731e-04  1.53579089e-05
 -6.87947836e-05  1.44314412e-03 -6.87582727e-04 -4.11393615e-04 -3.32039859e-04
 -1.13273453e-04 -8.14592396e-05 -5.47559602e-05 -3.28137796e-05  8.12711922e-06
 -4.33098733e-05  1.93976923e-02 -1.22026685e-03  9.37047062e-04 -9.94092468e-03
  3.01335481e-03 -1.81970893e-04 -1.03857474e-05 -1.98154327e-05  8.67794271e-05
  5.25723119e-03 -2.69004935e-03  1.60175185e-03  9.79464621e-04 -2.90560566e-04
 -2.39483777e-04 -1.65737970e-04  9.76133149e-05  2.47288962e-05  1.15053263e-05
  1.60505957e-02  3.22130601e-03  2.69231831e-03 -4.09094954e-03  9.93299610e-01
  5.04022854e-02 -1.33432372e-04 -1.60736739e-04  2.71130815e-04 -2.53267834e-02
 -1.02828362e-03  1.76635486e-04 -1.04331246e-03 -8.52642544e-03 -8.56693536e-03
 -8.38942418e-03  5.42169456e-05  6.62537635e-05 -5.38536497e-05 -4.02658384e-03
 -8.53086254e-04  9.72502264e-05  2.82109959e-03 -1.90969048e-04 -5.29246218e-04
 -8.18750204e-05 -1.00380362e-03 -1.38657782e-04 -2.56092036e-04 -7.69984420e-05
 -3.88243480e-05  8.72807856e-05  4.48849446e-03  1.42860554e-03  5.92706350e-04
 -1.02055041e-03 -2.77595177e-04 -2.13400953e-04 -2.54120224e-04 -1.08878369e-04
  2.47173338e-04  1.54890438e-04  2.33126327e-03  6.47285541e-04 -2.75111607e-04
 -1.03656375e-03  3.74975094e-05  1.07594428e-05 -9.76690971e-05 -4.31288098e-06
  2.10796749e-05  4.19725597e-04  4.95101230e-04  9.44167020e-05 -4.04561046e-04
  3.80895529e-05  4.82322416e-05  4.28983999e-05  2.14187722e-05 -2.00075542e-05
 -1.87639967e-05 -1.06627861e-02  1.37681537e-03 -4.72677575e-04  2.33135441e-03
  4.87477994e-06  3.89910283e-05  2.70183036e-05 -6.07991296e-06 -8.83108004e-06
 -6.52615014e-04  1.48575724e-04  2.01087150e-04 -1.88775070e-04 -1.71180200e-06
 -7.92917115e-07 -2.05217716e-05 -1.74621516e-05  1.20739510e-05  1.41499244e-05
  9.70456342e-03 -2.62474983e-03 -8.40099884e-04  9.36977706e-05 -2.33362007e-06
 -5.49268300e-06  7.27576087e-06  5.81825905e-06 -8.71755557e-06 -1.27840020e-04
 -3.87273634e-05 -5.82193212e-05  2.22413663e-04 -9.43740477e-07 -1.76674426e-06
  4.21420094e-06 -3.07265280e-06  5.03779728e-06 -5.50466674e-06 -1.87921091e-02
  3.86016558e-03  1.64199743e-03  2.45149137e-04  1.75274149e-05  4.58828610e-05
 -5.41108956e-06  3.90356409e-06 -1.98179966e-05 -8.54045872e-04  4.60532087e-04
  2.19699340e-04 -1.84642377e-04 -3.72680542e-06  1.47266584e-05  6.47285634e-07
 -8.75507701e-06  9.53055362e-06  3.14397202e-06  1.13668496e-02  5.69253194e-03