Generated by Psi4
     FORCE                           RHF                       TESTBAS
Number of atoms                            I               14
Charge                                     I                0
Multiplicity                               I                1
Number of electrons                        I               48
Number of alpha electrons                  I               24
Number of beta electrons                   I               24
Number of basis functions                  I              130
Number of independent functions            I              130
Atomic numbers                             I   N=          14
           8           6           6           6           1           1
           6           1           1           1           1           8
           1           1
Nuclear charges                            R   N=          14
  8.00000000e+00  6.00000000e+00  6.00000000e+00  6.00000000e+00  1.00000000e+00
  1.00000000e+00  6.00000000e+00  1.00000000e+00  1.00000000e+00  1.00000000e+00
  1.00000000e+00  8.00000000e+00  1.00000000e+00  1.00000000e+00
Current cartesian coordinates              R   N=          42
 -4.02282880e+00 -3.59470363e+00  2.08052939e-01 -3.21191682e+00 -1.06171445e+00
  6.51112960e-01 -4.41728208e-01 -6.26396854e-01 -5.16276540e-02  3.45890236e-01
  2.13718012e+00  2.66209260e-01 -1.34699902e-01 -1.22739840e+00 -2.00998217e+00
  7.80450520e-01 -1.82310186e+00  1.12491672e+00  3.09820438e+00  2.66693344e+00
 -2.84105089e-01 -1.97366958e-02  2.82076771e+00  2.20125488e+00 -7.74666950e-01
  3.39446071e+00 -9.59408874e-01 -3.54860460e+00 -5.25773505e-01  2.63595026e+00
 -4.45214529e+00  1.06566086e-01 -5.24116421e-01  4.65225893e+00  1.08674788e+00
 -8.70606538e-01 -3.00894122e+00 -4.72891780e+00  1.23120750e+00  3.66391189e+00
  4.68476970e+00 -1.09501731e-01
Integer atomic weights                     I   N=          14
          15          12          12          12           1           1
          12           1           1           1           1          15
           1           1
Real atomic weights                        R   N=          14
  1.59949146e+01  1.20000000e+01  1.20000000e+01  1.20000000e+01  1.00782503e+00
  1.00782503e+00  1.20000000e+01  1.00782503e+00  1.00782503e+00  1.00782503e+00
  1.00782503e+00  1.59949146e+01  1.00782503e+00  1.00782503e+00
Number of primitive shells                 I              134
Number of contracted shells                I               64
Pure/Cartesian d shells                    I                1
Pure/Cartesian f shells                    I                1
Highest angular momentum                   I                2
Largest degree of contraction              I                6
Shell types                                I   N=          64
           0           0           1           0           1           2
           0           1           0           0           1           0
           1           2           0           1           0           0
           1           0           1           2           0           1
           0           0           1           0           1           2
           0           1           0           0           0           0
           0           0           1           0           1           2
           0           1           0           0           0           0
           0           0           0           0           0           0
           1           0           1           2           0           1
           0           0           0           0
Number of primitives per shell             I   N=          64
           6           3           3           1           1           1
           1           1           6           3           3           1
           1           1           1           1           6           3
           3           1           1           1           1           1
           6           3           3           1           1           1
           1           1           3           1           3           1
           6           3           3           1           1           1
           1           1           3           1           3           1
           3           1           3           1           6           3
           3           1           1           1           1           1
           3           1           3           1
Shell to atom map                          I   N=          64
           1           1           1           1           1           1
           1           1           2           2           2           2
           2           2           2           2           3           3
           3           3           3           3           3           3
           4           4           4           4           4           4
           4           4           5           5           6           6
           7           7           7           7           7           7
           7           7           8           8           9           9
          10          10          11          11          12          12
          12          12          12          12          12          12
          13          13          14          14
Primitive exponents                        R   N=         134
  5.48467170e+03  8.25234950e+02  1.88046960e+02  5.29645000e+01  1.68975700e+01
  5.79963530e+00  1.55396160e+01  3.59993360e+00  1.01376180e+00  1.55396160e+01
  3.59993360e+00  1.01376180e+00  2.70005800e-01  2.70005800e-01  8.00000000e-01
  8.45000000e-02  8.45000000e-02  3.04752490e+03  4.57369510e+02  1.03948690e+02
  2.92101550e+01  9.28666300e+00  3.16392700e+00  7.86827240e+00  1.88128850e+00
  5.44249300e-01  7.86827240e+00  1.88128850e+00  5.44249300e-01  1.68714400e-01
  1.68714400e-01  8.00000000e-01  4.38000000e-02  4.38000000e-02  3.04752490e+03
  4.57369510e+02  1.03948690e+02  2.92101550e+01  9.28666300e+00  3.16392700e+00
  7.86827240e+00  1.88128850e+00  5.44249300e-01  7.86827240e+00  1.88128850e+00
  5.44249300e-01  1.68714400e-01  1.68714400e-01  8.00000000e-01  4.38000000e-02
  4.38000000e-02  3.04752490e+03  4.57369510e+02  1.03948690e+02  2.92101550e+01
  9.28666300e+00  3.16392700e+00  7.86827240e+00  1.88128850e+00  5.44249300e-01
  7.86827240e+00  1.88128850e+00  5.44249300e-01  1.68714400e-01  1.68714400e-01
  8.00000000e-01  4.38000000e-02  4.38000000e-02  1.87311370e+01  2.82539370e+00
  6.40121700e-01  1.61277800e-01  1.87311370e+01  2.82539370e+00  6.40121700e-01
  1.61277800e-01  3.04752490e+03  4.57369510e+02  1.03948690e+02  2.92101550e+01
  9.28666300e+00  3.16392700e+00  7.86827240e+00  1.88128850e+00  5.44249300e-01
  7.86827240e+00  1.88128850e+00  5.44249300e-01  1.68714400e-01  1.68714400e-01
  8.00000000e-01  4.38000000e-02  4.38000000e-02  1.87311370e+01  2.82539370e+00
  6.40121700e-01  1.61277800e-01  1.87311370e+01  2.82539370e+00  6.40121700e-01
  1.61277800e-01  1.87311370e+01  2.82539370e+00  6.40121700e-01  1.61277800e-01
  1.87311370e+01  2.82539370e+00  6.40121700e-01  1.61277800e-01  5.48467170e+03
  8.25234950e+02  1.88046960e+02  5.29645000e+01  1.68975700e+01  5.79963530e+00
  1.55396160e+01  3.59993360e+00  1.01376180e+00  1.55396160e+01  3.59993360e+00
  1.01376180e+00  2.70005800e-01  2.70005800e-01  8.00000000e-01  8.45000000e-02
  8.45000000e-02  1.87311370e+01  2.82539370e+00  6.40121700e-01  1.61277800e-01
  1.87311370e+01  2.82539370e+00  6.40121700e-01  1.61277800e-01
Contraction coefficients                   R   N=         134
  1.83109981e-03  1.39500985e-02  6.84450927e-02  2.32714275e-01  4.70192950e-01
  3.58520862e-01 -1.10777504e-01 -1.48026305e-01  1.13076704e+00  7.08742995e-02
  3.39752798e-01  7.27158595e-01  1.00000000e+00  1.00000000e+00  1.00000000e+00
  1.00000000e+00  1.00000000e+00  1.83470016e-03  1.40373012e-02  6.88426061e-02
  2.32184421e-01  4.67941342e-01  3.62312032e-01 -1.19332409e-01 -1.60854212e-01
  1.14345648e+00  6.89990956e-02  3.16423980e-01  7.44308252e-01  1.00000000e+00
  1.00000000e+00  1.00000000e+00  1.00000000e+00  1.00000000e+00  1.83470016e-03
  1.40373012e-02  6.88426061e-02  2.32184421e-01  4.67941342e-01  3.62312032e-01
 -1.19332409e-01 -1.60854212e-01  1.14345648e+00  6.89990956e-02  3.16423980e-01
  7.44308252e-01  1.00000000e+00  1.00000000e+00  1.00000000e+00  1.00000000e+00
  1.00000000e+00  1.83470016e-03  1.40373012e-02  6.88426061e-02  2.32184421e-01
  4.67941342e-01  3.62312032e-01 -1.19332409e-01 -1.60854212e-01  1.14345648e+00
  6.89990956e-02  3.16423980e-01  7.44308252e-01  1.00000000e+00  1.00000000e+00
  1.00000000e+00  1.00000000e+00  1.00000000e+00  3.34945995e-02  2.34726947e-01
  8.13757318e-01  1.00000000e+00  3.34945995e-02  2.34726947e-01  8.13757318e-01
  1.00000000e+00  1.83470016e-03  1.40373012e-02  6.88426061e-02  2.32184421e-01
  4.67941342e-01  3.62312032e-01 -1.19332409e-01 -1.60854212e-01  1.14345648e+00
  6.89990956e-02  3.16423980e-01  7.44308252e-01  1.00000000e+00  1.00000000e+00
  1.00000000e+00  1.00000000e+00  1.00000000e+00  3.34945995e-02  2.34726947e-01
  8.13757318e-01  1.00000000e+00  3.34945995e-02  2.34726947e-01  8.13757318e-01
  1.00000000e+00  3.34945995e-02  2.34726947e-01  8.13757318e-01  1.00000000e+00
  3.34945995e-02  2.34726947e-01  8.13757318e-01  1.00000000e+00  1.83109981e-03
  1.39500985e-02  6.84450927e-02  2.32714275e-01  4.70192950e-01  3.58520862e-01
 -1.10777504e-01 -1.48026305e-01  1.13076704e+00  7.08742995e-02  3.39752798e-01
  7.27158595e-01  1.00000000e+00  1.00000000e+00  1.00000000e+00  1.00000000e+00
  1.00000000e+00  3.34945995e-02  2.34726947e-01  8.13757318e-01  1.00000000e+00
  3.34945995e-02  2.34726947e-01  8.13757318e-01  1.00000000e+00
Coordinates of each shell                  R   N=         192
 -4.02282880e+00 -3.59470363e+00  2.08052939e-01 -4.02282880e+00 -3.59470363e+00
  2.08052939e-01 -4.02282880e+00 -3.59470363e+00  2.08052939e-01 -4.02282880e+00
 -3.59470363e+00  2.08052939e-01 -4.02282880e+00 -3.59470363e+00  2.08052939e-01
 -4.02282880e+00 -3.59470363e+00  2.08052939e-01 -4.02282880e+00 -3.59470363e+00
  2.08052939e-01 -4.02282880e+00 -3.59470363e+00  2.08052939e-01 -3.21191682e+00
 -1.06171445e+00  6.51112960e-01 -3.21191682e+00 -1.06171445e+00  6.51112960e-01
 -3.21191682e+00 -1.06171445e+00  6.51112960e-01 -3.21191682e+00 -1.06171445e+00
  6.51112960e-01 -3.21191682e+00 -1.06171445e+00  6.51112960e-01 -3.21191682e+00
 -1.06171445e+00  6.51112960e-01 -3.21191682e+00 -1.06171445e+00  6.51112960e-01
 -3.21191682e+00 -1.06171445e+00  6.51112960e-01 -4.41728208e-01 -6.26396854e-01
 -5.16276540e-02 -4.41728208e-01 -6.26396854e-01 -5.16276540e-02 -4.41728208e-01
 -6.26396854e-01 -5.16276540e-02 -4.41728208e-01 -6.26396854e-01 -5.16276540e-02
 -4.41728208e-01 -6.26396854e-01 -5.16276540e-02 -4.41728208e-01 -6.26396854e-01
 -5.16276540e-02 -4.41728208e-01 -6.26396854e-01 -5.16276540e-02 -4.41728208e-01
 -6.26396854e-01 -5.16276540e-02  3.45890236e-01  2.13718012e+00  2.66209260e-01
  3.45890236e-01  2.13718012e+00  2.66209260e-01  3.45890236e-01  2.13718012e+00
  2.66209260e-01  3.45890236e-01  2.13718012e+00  2.66209260e-01  3.45890236e-01
  2.13718012e+00  2.66209260e-01  3.45890236e-01  2.13718012e+00  2.66209260e-01
  3.45890236e-01  2.13718012e+00  2.66209260e-01  3.45890236e-01  2.13718012e+00
  2.66209260e-01 -1.34699902e-01 -1.22739840e+00 -2.00998217e+00 -1.34699902e-01
 -1.22739840e+00 -2.00998217e+00  7.80450520e-01 -1.82310186e+00  1.12491672e+00
  7.80450520e-01 -1.82310186e+00  1.12491672e+00  3.09820438e+00  2.66693344e+00
 -2.84105089e-01  3.09820438e+00  2.66693344e+00 -2.84105089e-01  3.09820438e+00
  2.66693344e+00 -2.84105089e-01  3.09820438e+00  2.66693344e+00 -2.84105089e-01
  3.09820438e+00  2.66693344e+00 -2.84105089e-01  3.09820438e+00  2.66693344e+00
 -2.84105089e-01  3.09820438e+00  2.66693344e+00 -2.84105089e-01  3.09820438e+00
  2.66693344e+00 -2.84105089e-01 -1.97366958e-02  2.82076771e+00  2.20125488e+00
 -1.97366958e-02  2.82076771e+00  2.20125488e+00 -7.74666950e-01  3.39446071e+00
 -9.59408874e-01 -7.74666950e-01  3.39446071e+00 -9.59408874e-01 -3.54860460e+00
 -5.25773505e-01  2.63595026e+00 -3.54860460e+00 -5.25773505e-01  2.63595026e+00
 -4.45214529e+00  1.06566086e-01 -5.24116421e-01 -4.45214529e+00  1.06566086e-01
 -5.24116421e-01  4.65225893e+00  1.08674788e+00 -8.70606538e-01  4.65225893e+00
  1.08674788e+00 -8.70606538e-01  4.65225893e+00  1.08674788e+00 -8.70606538e-01
  4.65225893e+00  1.08674788e+00 -8.70606538e-01  4.65225893e+00  1.08674788e+00
 -8.70606538e-01  4.65225893e+00  1.08674788e+00 -8.70606538e-01  4.65225893e+00
  1.08674788e+00 -8.70606538e-01  4.65225893e+00  1.08674788e+00 -8.70606538e-01
 -3.00894122e+00 -4.72891780e+00  1.23120750e+00 -3.00894122e+00 -4.72891780e+00
  1.23120750e+00  3.66391189e+00  4.68476970e+00 -1.09501731e-01  3.66391189e+00
  4.68476970e+00 -1.09501731e-01
Total Energy                               R     -3.076806713966912e+02
Alpha Orbital Energies                     R   N=         130
 -1.91715471e+01 -1.91641080e+01 -1.02953673e+01 -1.02451719e+01 -1.02185779e+01
 -1.02009733e+01 -1.06446222e+00 -1.03061261e+00 -8.12439688e-01 -7.23124176e-01
 -6.37262822e-01 -5.74854951e-01 -5.24259389e-01 -4.99091701e-01 -4.79995551e-01
 -4.54861599e-01 -4.36394126e-01 -4.27298113e-01 -3.89822348e-01 -3.76560710e-01
 -3.63575361e-01 -3.38719410e-01 -2.86893289e-01 -2.71263240e-01 -4.20409203e-02
 -8.32131277e-04  3.09140587e-03  2.57619593e-02  2.83198652e-02  3.33599918e-02
  5.36163337e-02  6.77010136e-02  7.00345790e-02  7.72561946e-02  8.96585681e-02
  9.85989437e-02  1.11443152e-01  1.20597280e-01  1.40564020e-01  1.55778671e-01
  1.67036940e-01  1.74493062e-01  1.81232987e-01  1.91483019e-01  2.13049453e-01
  2.16179206e-01  2.25313469e-01  2.32780901e-01  2.51594236e-01  2.56855211e-01
  2.63590189e-01  2.73862859e-01  2.78069502e-01  2.87467404e-01  3.03094403e-01
  3.12587718e-01  3.25870269e-01  3.36842335e-01  3.48506972e-01  3.76805619e-01
  3.93587349e-01  4.47374427e-01  6.00348033e-01  6.31714531e-01  6.50776994e-01
  6.68897464e-01  6.74276627e-01  6.82405631e-01  7.07250309e-01  7.38606124e-01
  7.39878358e-01  8.53104885e-01  8.67185849e-01  8.80583434e-01  8.98712644e-01
  9.32867107e-01  9.73339825e-01  1.01967033e+00  1.02419267e+00  1.06276036e+00
  1.07061372e+00  1.08805167e+00  1.10635467e+00  1.14368078e+00  1.21576875e+00
  1.23256808e+00  1.24033876e+00  1.27385311e+00  1.29964578e+00  1.32813816e+00
  1.40132471e+00  1.45321009e+00  1.48371137e+00  1.51781186e+00  1.59302657e+00
  1.60108354e+00  1.66249081e+00  1.67274703e+00  1.70404729e+00  1.77235738e+00
  1.79151167e+00  1.81275215e+00  1.87532707e+00  1.92396749e+00  1.93066508e+00
  1.95078097e+00  1.98451133e+00  2.07826070e+00  2.09280532e+00  2.14522929e+00
  2.18459102e+00  2.25048573e+00  2.28998949e+00  2.36159317e+00  2.40028650e+00
  2.44759600e+00  2.52638485e+00  2.55240602e+00  2.58528375e+00  2.63170626e+00
  2.78947961e+00  2.88357232e+00  2.93973108e+00  3.07502271e+00  4.07379398e+00
  4.12535888e+00  4.17476620e+00  4.32156735e+00  4.40336827e+00  4.55564510e+00
Alpha MO coefficients                      R   N=       16900
  7.07343540e-06 -5.61364133e-06  3.62617301e-06 -3.55319762e-06 -3.12589310e-06
  2.14998161e-05 -2.68228762e-05  1.57291862e-05  1.79286032e-05 -2.78472429e-07
 -6.23434111e-06 -9.06824647e-06 -4.93686421e-07 -2.58028279e-06  1.92536166e-06
  6.27808086e-06  2.02655039e-04 -2.87785724e-05 -5.04596446e-05 -2.59964193e-07
 -5.34753215e-06  1.04221025e-05  2.71318076e-06 -3.62101872e-07  1.55141397e-04
  1.07622000e-04  2.48418561e-05 -3.73678867e-05  1.06902205e-06  1.21497882e-06
  3.81466358e-06 -2.55267313e-06  1.82700025e-06  4.75712029e-08  4.09808590e-03
  8.41798789e-04 -3.20298462e-04 -3.45044419e-04  1.27428146e-05  2.71406150e-05
  1.18247502e-05 -1.09325442e-05 -2.89167983e-06 -4.68040997e-04  1.37640407e-04
  3.71411435e-07 -5.47019339e-05  5.45143979e-05  5.20332670e-06  3.05623105e-05
  9.86222231e-06 -7.60360313e-06 -5.67846780e-06  1.04963087e-04  2.39406300e-03
  1.93282908e-03 -2.37752150e-04 -5.24736013e-06  1.00206070e-05  1.13578174e-05
  3.06165352e-05  5.19697064e-07  3.87123958e-05 -1.18715516e-04 -3.47766151e-04
 -1.21006036e-05 -3.77058962e-05 -4.61218065e-07 -8.59310349e-06  5.70479638e-05
  1.70804063e-05 -1.23190153e-05 -7.38165571e-03 -1.06276964e-03  1.58228043e-03
  5.20902535e-04 -5.18744449e-06  2.12175634e-04  7.73406858e-06  2.35483617e-04
 -9.22516454e-06  4.17844766e-04  1.63260009e-04 -1.74961071e-04 -6.25416769e-05
  1.08594453e-04 -6.13713888e-04  5.82667953e-04  2.21219394e-04 -3.21901714e-04
 -3.37810367e-04 -1.89797786e-04  1.82788362e-04  6.82719634e-05 -7.05856596e-05
  5.51809078e-03  6.71457856e-05 -1.66769393e-03 -2.62866945e-04 -2.35150187e-05
  1.72582164e-04 -1.89151777e-05  1.84557250e-04 -8.89412394e-06  6.39097237e-05
 -7.44085828e-06  3.79964747e-05  9.92592885e-01  2.52656406e-02 -8.80345214e-04
  8.92870783e-04  3.33628070e-04  1.53119275e-02  1.92873019e-04 -3.15088001e-04
 -9.30254464e-05 -8.52570098e-03 -8.51948522e-03 -8.58674309e-03 -5.76892335e-05
 -2.69345110e-05  2.62074605e-05 -6.64913085e-03  2.53592901e-04  2.55982203e-04
 -8.04418299e-06  2.90326468e-06 -2.63729430e-05 -4.12897470e-05  3.15588664e-05
  9.92595610e-01  2.53818937e-02  8.70821542e-04  2.25085579e-04  7.52763936e-04
  1.46829199e-02 -5.86592266e-04 -1.12840959e-04 -5.28600278e-04 -8.55135351e-03
 -8.73375818e-03 -8.53502517e-03 -5.71024046e-05 -4.98193597e-05 -2.85340922e-05
 -6.25736297e-03  3.58423261e-04 -4.86394635e-04  3.20498139e-04 -3.93504347e-05
 -7.00360854e-06 -8.59890632e-05 -3.19441793e-04 -6.55640354e-05 -4.34816270e-04
  6.69609144e-05  8.45164096e-05  2.67937993e-04 -5.74703076e-05  3.64866757e-04
 -6.66572301e-05  1.35844230e-04  1.61688797e-05  6.86178995e-05  3.21013416e-03
 -2.97496837e-04 -2.24356837e-03 -7.09626977e-04  9.44461649e-07  4.89587533e-05
  5.74034239e-06  1.08879320e-05  1.08611229e-05  4.98888268e-05 -3.69307520e-04
 -1.32245908e-04 -6.40209657e-05  5.62798296e-06 -5.19016598e-05  4.11190976e-06
 -3.70007957e-05  2.06984732e-06 -3.42898054e-06 -4.81568331e-03  3.40754902e-04
 -3.48518568e-04 -2.17114571e-04 -4.00054054e-06 -3.15574865e-05 -1.25687044e-05
 -1.20508103e-05  7.31320055e-08  2.62663457e-04  1.14882821e-04 -1.20078481e-04
  8.95980849e-06 -2.00321421e-07  2.13520319e-05 -9.06225261e-06 -3.33002006e-06
 -5.54995077e-06  2.54335534e-06  6.52551531e-04 -1.93940332e-03 -1.12508785e-03
  5.97924005e-04 -3.19271911e-05  2.79438574e-04 -2.08225849e-05  3.48484948e-04
 -1.42336735e-06 -3.15590995e-06  6.53753748e-06  1.41157481e-05  5.51326527e-06
 -1.13022406e-04  1.24875502e-05 -1.55364963e-05 -3.63187089e-05 -4.14995373e-06
 -3.81087158e-06 -4.27845078e-06 -1.57677213e-06  3.02610328e-06  1.92346509e-06
  3.14924399e-03 -6.96826067e-04 -9.74553073e-05 -3.26641354e-05  6.61602188e-06
 -3.56252431e-05 -3.76143259e-07  7.67989155e-05 -9.77057815e-06  2.62862502e-04
  4.08294888e-05  4.79982950e-04 -1.12497980e-05 -1.10039705e-05  4.92019739e-06
 -4.58284296e-07  1.42259245e-06  4.08604871e-05 -2.69009490e-05  1.56859348e-05
 -1.35296273e-06 -3.96899788e-06 -6.08484897e-06 -1.20413226e-05  7.34434083e-07
 -1.95373306e-06  3.42049783e-06 -3.20363232e-06 -3.74218873e-05 -8.43570578e-05
  4.72022903e-05  3.53849151e-04 -4.98577368e-04  6.52122959e-06  2.56786202e-05
 -1.03594499e-06 -1.08988116e-05 -8.74025766e-06  1.51777518e-06  1.98827807e-06
  1.25479204e-04  4.74931290e-05  4.58332273e-05  3.05612122e-06 -1.43690106e-05
  1.85766210e-05 -1.16522472e-08 -9.47489814e-06  4.21923761e-07  1.24052971e-05
 -9.88139483e-05 -4.73510309e-04 -2.32196364e-05  1.93313247e-04 -4.17491053e-05
 -9.89005054e-05 -5.37124727e-05 -2.48872765e-05  1.43264199e-05  5.55815753e-04
  4.38737968e-04  3.87704965e-04 -6.07005883e-05 -1.17089862e-05 -6.11292730e-05
 -3.89786011e-05  1.70421067e-05 -4.14277221e-06 -1.28267571e-05  2.76467831e-03
  1.29642525e-03  1.89048483e-03 -8.40845413e-06 -2.04196965e-05 -2.17037364e-05
 -9.78663233e-06 -1.46911552e-05  2.53676571e-06 -6.33653237e-04 -5.34933106e-06
 -4.51551438e-04 -9.62635285e-05 -2.20580641e-05 -1.53448449e-05 -3.28884139e-05
 -1.75043890e-06  1.35364797e-06  2.60910900e-06 -9.74221312e-03 -2.76212105e-03
 -4.07146962e-03 -9.71449995e-05  1.49386917e-03 -6.09826044e-05 -1.87798667e-04
 -2.73416971e-05  4.36913620e-05  3.69657507e-03  1.46850103e-03  1.64713918e-05
 -3.69361913e-04 -4.36603670e-04 -1.11887990e-04 -9.68441792e-05 -1.09221656e-04
  7.86211128e-05  2.01724235e-05  1.76915473e-02  5.61007781e-03  3.92373180e-04
 -1.38118796e-03  1.59637856e-05 -1.75344351e-04  8.75043400e-06 -1.91101530e-04
  9.93035995e-01  4.96744073e-02  6.22471477e-04 -7.26929770e-04 -2.49433709e-04
 -1.63682737e-02  8.25656837e-04  5.45733896e-04 -9.77905805e-05 -8.70468952e-03
 -8.72156497e-03 -9.18429047e-03 -4.18393977e-04 -2.06377010e-04  1.85049303e-04
 -1.17835752e-02  2.29976555e-03 -9.58570164e-04 -6.36766654e-04 -9.99419912e-05
 -1.22319920e-04 -9.96113721e-05 -1.68466846e-04 -7.94673944e-06 -1.81900517e-04
 -1.38910177e-05 -1.80663168e-04 -1.40051984e-04  3.53102233e-04  2.22429028e-05
 -4.49219853e-05 -1.26107576e-05 -1.42087923e-03  5.76919467e-04 -6.28104295e-04
 -2.19727705e-04  1.26808202e-04  2.54954488e-05  3.57894030e-04  2.50785903e-04
  1.07349718e-04 -1.20264236e-04  5.96683178e-03 -2.62655620e-03  1.82786774e-03
  8.43309164e-04  1.65389655e-05 -8.36165547e-05 -1.62584016e-04  1.87685173e-03
 -4.88233588e-05  1.21782292e-05 -2.96557198e-05 -7.55062745e-05 -2.25924239e-05
  1.44941655e-03  3.39819719e-04  4.64967526e-04  1.40797098e-04  4.77029124e-05
 -4.67210480e-04  1.00053742e-04 -1.76322642e-04  8.48417331e-06 -1.55121838e-04
  5.69978260e-03  1.18040188e-03  2.09377412e-03  4.48603785e-04  9.93154524e-01
  4.98560665e-02 -1.68896854e-04 -7.55446355e-04 -1.41563735e-04 -2.08428147e-02
 -9.74213242e-04  8.42909141e-04  6.77473376e-04 -8.79661157e-03 -8.62453597e-03
 -8.64167174e-03 -6.12170840e-06  6.94497689e-05  8.77143584e-06 -1.14632087e-02
 -2.28834890e-03 -1.43398062e-03  3.72629330e-04  2.33023409e-03 -2.33776299e-04
  1.12260879e-04 -3.80094423e-05 -3.77589845e-05  5.50718376e-03 -2.36815704e-03
 -1.54230916e-04  5.90816748e-04 -3.44703729e-04 -1.40075615e-04 -1.53913838e-04
  1.09049445e-05  8.23883075e-05 -8.99254799e-07  1.05603071e-02 -1.15902826e-03
  1.62148278e-03  7.13245633e-04 -4.50870624e-05 -8.24943726e-06  9.85606719e-05
  2.83401752e-05 -1.09417092e-05 -9.02067691e-04 -6.27469127e-04  4.99189661e-04
  1.90843966e-04 -2.81319043e-05 -3.57700838e-05 -2.44639841e-05 -1.02550371e-05
 -8.92023577e-06 -1.63618359e-06 -8.25905701e-03 -3.73197379e-03 -3.22916138e-04
  8.57983588e-04 -1.44798082e-04 -3.39097501e-04 -1.47586967e-04 -2.75197705e-04
 -1.20719391e-05 -1.34228106e-04  1.49026229e-05  2.99981823e-05  3.05428346e-06
  9.31305674e-04 -5.66907871e-04 -5.45514337e-04  4.65516353e-05 -1.73935669e-06
 -2.98327161e-05 -7.00275319e-05  3.62610537e-05 -1.37902727e-05  1.61340588e-07
  6.73296840e-03 -1.42437486e-03 -7.59593841e-05  2.85116757e-04 -5.22384185e-06
 -2.58543721e-04  3.81773784e-06 -3.59390186e-04 -4.60620442e-05  3.21598640e-03
 -1.53251561e-05  3.38275066e-03  5.51191572e-06  3.27492495e-05  7.37488182e-06
 -8.50387965e-07 -3.10244413e-06 -3.25664571e-04  7.56314491e-05  5.67086807e-05
 -1.03382633e-06  2.10857016e-05  3.81679013e-05 -1.83522516e-05  7.07774860e-06
 -8.63007619e-06  1.00576230e-05  2.59726944e-04 -8.91216346e-05 -5.91645030e-05
 -7.55951174e-06 -5.86808598e-05 -4.57700967e-04  3.25636790e-06  2.58304110e-04
 -3.04833281e-05 -1.52773275e-04 -3.30724714e-05 -5.05227707e-05 -1.34365058e-05
  7.33221622e-04  3.00823725e-04  4.88277766e-04  1.19269386e-04 -6.51667737e-05
 -2.36777252e-05 -1.25275826e-04  6.55567037e-05  2.41596774e-05 -8.63699867e-06
  1.58395598e-03  6.04912074e-04 -4.10750032e-05  5.49162411e-05  2.16952554e-05
  2.78098379e-05 -5.06423821e-05 -5.77913467e-05  4.39453836e-06 -1.18202836e-03
 -2.87048723e-04  7.70151460e-04  2.59081532e-04 -3.69461844e-05 -7.79259995e-05
 -3.01409137e-05 -4.43145400e-05 -9.36871351e-06 -7.53759345e-06 -2.06164111e-04
 -3.91468494e-04  3.01809308e-04  3.08354614e-05  5.92657791e-03 -1.70102642e-04
  2.05899959e-05 -1.16727469e-04 -3.58916954e-05  6.67681772e-03  7.54152479e-04
  2.91243157e-03  4.28565138e-04 -2.27463838e-04 -4.12771620e-04 -1.97259244e-04
  1.18963919e-06  1.60567504e-05 -4.89231568e-05  9.50059531e-03  1.36479143e-03
  3.02691222e-03  3.63006494e-04  9.93075708e-01  5.08864731e-02  4.14083467e-05
  9.13336336e-05  2.53063643e-05 -2.38485953e-02 -1.29971715e-03  1.33654425e-03
  4.61522302e-04 -8.97632763e-03 -8.97907938e-03 -8.77877109e-03 -2.74789397e-05
  5.54582351e-05 -4.01597526e-05 -9.57368883e-03  1.25257058e-03  2.00483256e-03
  6.82079749e-05 -1.73651314e-04 -2.97158572e-04 -1.83499689e-04 -3.90196030e-04
 -1.71908049e-03 -3.80717677e-04  1.77654944e-04  4.40586183e-05 -3.44751539e-05
  6.24596483e-03 -3.36609933e-03 -1.98037546e-03  4.77198367e-04 -3.78042124e-04
 -2.71725780e-05 -1.77836324e-04 -2.14146948e-05  5.07896097e-05  2.78135810e-05
 -1.04823600e-03  4.83266699e-05  7.36716616e-05 -4.36305336e-05  9.53476167e-06
  4.04928363e-03 -3.11469341e-06  3.99581504e-03  2.07731441e-05 -3.19785688e-04
  8.61427487e-06 -2.31330853e-04  2.81348335e-05  1.08172476e-04 -1.54122620e-05
 -4.89307944e-06  2.20392281e-06 -1.13168753e-03  6.40483558e-04  8.86094855e-05
 -1.34836732e-04  2.23894377e-05  2.07205219e-04 -7.73370309e-06  1.85498742e-05
 -9.63980828e-06  3.24866751e-05  3.40656036e-04  5.35657735e-05  6.47065992e-04
  1.13380620e-04 -3.65361632e-05 -3.68627147e-04 -1.02964066e-04  7.91186058e-04
  1.05629237e-05  3.19554109e-05 -3.12943895e-05 -9.58831920e-06 -6.17435482e-06
 -5.51354919e-04 -1.16234320e-04 -2.15799810e-04  6.78927485e-05  8.91910961e-05
  1.58215911e-05 -4.31049540e-05 -2.59219414e-05 -3.56817678e-05  2.66348005e-05
  1.18356620e-03  2.18902141e-04  1.66855594e-04  2.50011317e-04 -2.58869778e-03
 -4.76616775e-04 -9.35558699e-05  1.45116979e-05  3.35248135e-05  5.72448732e-03
  2.80929828e-03  4.94244132e-04 -8.15092540e-04 -3.17746726e-04 -9.89662316e-05
 -9.96942250e-05  1.55221001e-06  8.82385366e-05  4.25004709e-06 -3.36607429e-03
 -9.16603907e-04  4.66914948e-04  2.11450984e-04  9.93072222e-01  5.06443096e-02
  2.96063071e-06  1.76069677e-04  7.20817254e-05 -2.29467969e-02  9.44776637e-04
 -1.42698416e-03 -4.98148419e-04 -8.94190550e-03 -8.93993772e-03 -8.76843183e-03
 -7.19967664e-05  4.45308796e-05 -2.62267741e-05 -3.84428889e-03 -2.74219345e-03
 -1.92790532e-03  4.79648383e-04 -6.24239872e-03 -7.81138248e-04  1.25657026e-05
  1.38264766e-04  2.89855680e-05  6.93295079e-03 -6.39149697e-04 -3.12673953e-03
 -4.51816786e-04 -8.54655149e-05 -3.80180290e-04 -1.05641229e-04 -7.63157710e-05
 -1.42760582e-05 -3.93964890e-05  1.50420842e-02  3.30244067e-03 -1.06768071e-03
 -1.01143936e-03  2.27962902e-05  3.83931014e-03  7.69939418e-06  3.76100132e-03
  1.22202902e-05 -6.34545238e-05 -2.29009908e-05  1.22654389e-04  1.96375731e-05
 -1.73187471e-03  2.26046629e-05  1.07761949e-03  1.93362898e-04 -5.02463517e-05
 -1.49511411e-05 -2.37082728e-05  2.66148524e-05  1.02300546e-05 -5.75778499e-08
 -9.35386370e-03  2.37197099e-03  6.55364930e-04 -4.06983105e-04 -1.78594911e-04
 -2.88999521e-04 -1.88168886e-04 -3.02843891e-04 -1.94203969e-04  7.74808087e-05
 -2.14794584e-04  1.40008696e-05 -5.40269086e-05 -2.43609089e-04  7.68754121e-05
 -3.79212390e-06 -1.79064383e-05  1.42127123e-03 -6.36884344e-04  3.74262948e-04
  2.08184181e-04 -8.33748361e-05 -1.51983034e-04 -1.94321746e-04 -6.33215992e-05
 -3.21476038e-05  2.64899523e-05  1.15799022e-03 -2.19300331e-04 -4.03540793e-04
 -1.16819703e-04  7.82072892e-06 -4.57396983e-04 -5.24882270e-05  1.28763674e-06
  1.60974727e-03 -4.00222701e-03 -8.82595716e-04 -4.82747252e-04 -5.18627635e-04
 -1.51868837e-03  7.46613137e-04  6.52230599e-04 -5.04740907e-04 -1.83367446e-04
 -1.63282500e-04 -1.15701015e-04  7.59397758e-05 -7.57723247e-05  2.33084173e-05
 -3.05344948e-04 -4.43734299e-03 -7.64701290e-04  9.89838400e-04  1.44883904e-03
 -1.82014545e-03 -1.09580011e-03  3.72782102e-04  3.63122811e-04 -9.24831960e-03
 -2.87413062e-03  1.05283339e-04  1.06663670e-03 -1.83585140e-04 -9.97144144e-05
  2.15431599e-04 -1.97156786e-04  6.80105224e-05 -4.00086338e-05 -2.94152716e-02
 -3.21311122e-03  1.55784960e-02  4.32543056e-03  5.58184726e-03 -1.05536497e-02
 -4.21677413e-03 -4.59129532e-03 -2.08823471e-06  5.42417637e-03 -7.58613588e-03
  1.78494268e-03  2.72521286e-03 -7.46746302e-04 -5.15454559e-04  9.98113194e-05
 -7.22677299e-04  6.23362981e-05  3.55571325e-05 -5.84820425e-02 -4.01381248e-02
 -4.38125026e-02  1.94688093e-03  1.78581040e-02 -3.09392034e-02 -2.49892277e-02
  1.58834159e-03  5.93215822e-03 -1.69017019e-02  4.20471827e-04  1.31059299e-02
  1.36844214e-03 -6.64443042e-03  1.32342406e-03  9.68784716e-04  1.53942844e-04
  2.14648309e-03 -7.87479038e-05  1.99125482e-01  5.20865705e-02 -1.65421694e-02
 -1.60362188e-02 -2.65953417e-03  2.53357380e-04 -3.06364601e-03 -5.83488671e-04
  1.18100933e-01 -2.28151015e-01 -1.22972270e-01  1.29469505e-01  4.69774355e-02
 -9.48641312e-02  1.46866405e-02 -2.53318628e-02 -7.04987057e-03 -6.39462831e-04
 -3.00079473e-03  1.70449084e-02  2.29876610e-02  8.78805222e-03 -9.12855682e-03
 -1.34120352e-01  1.74143071e-02  1.25774198e-02 -1.78060041e-03 -5.46191873e-03
 -1.47483504e-03 -5.43226988e-03 -2.19117533e-03 -2.84783721e-04 -6.63409049e-05
 -2.78211439e-04  3.51708260e-04  1.95628547e-01 -4.26238194e-01  1.12740828e-01
 -1.12526396e-01 -4.23545374e-02 -4.01466118e-01  3.64182527e-02 -3.17571306e-02
 -1.30505210e-02  1.63090710e-03  2.06252677e-03  5.76215600e-03  1.12469939e-02
  3.05507471e-03 -3.34387120e-03  3.87071183e-02 -3.14603639e-03 -4.28055306e-03
 -2.70610858e-04 -1.08673067e-03  5.63227359e-04 -2.83431204e-02  1.75171258e-02