Generated by Psi4
     FORCE                           RHF                       TESTBAS
Number of atoms                            I               15
Charge                                     I                0
Multiplicity                               I                1
Number of electrons                        I               56
Number of alpha electrons                  I               28
Number of beta electrons                   I               28
Number of basis functions                  I              149
Number of independent functions            I              149
Atomic numbers                             I   N=          15
           8           6           6           6           1           1
           6           1           1           1           1           8
           8           1           1
Nuclear charges                            R   N=          15
  8.00000000e+00  6.00000000e+00  6.00000000e+00  6.00000000e+00  1.00000000e+00
  1.00000000e+00  6.00000000e+00  1.00000000e+00  1.00000000e+00  1.00000000e+00
  1.00000000e+00  8.00000000e+00  8.00000000e+00  1.00000000e+00  1.00000000e+00
Current cartesian coordinates              R   N=          45
 -4.58357110e+00 -4.37365022e+00  4.10894118e-01 -3.81066887e+00 -1.80572582e+00
  6.70099723e-01 -1.01963971e+00 -1.40484193e+00  2.95371548e-02 -2.72300987e-01
  1.38896522e+00  1.29956061e-01 -6.36881710e-01 -2.16802941e+00 -1.85691058e+00
  1.72786195e-01 -2.47045042e+00  1.35044460e+00  2.53876922e+00  1.82689252e+00
 -3.25695084e-01 -7.44406534e-01  2.20543227e+00  1.98489018e+00 -1.35342146e+00
  2.47918939e+00 -1.27194317e+00 -4.22037387e+00 -1.10964287e+00  2.59073238e+00
 -5.01813334e+00 -7.52484957e-01 -6.40562316e-01  3.25989430e+00  4.29969202e+00
 -4.79098877e-01  4.10352004e+00  1.83746690e-01 -5.25354514e-01  1.81448683e+00
  5.41934714e+00 -3.01460411e-01 -3.60497793e+00 -5.40877112e+00  1.56520027e+00
Integer atomic weights                     I   N=          15
          15          12          12          12           1           1
          12           1           1           1           1          15
          15           1           1
Real atomic weights                        R   N=          15
  1.59949146e+01  1.20000000e+01  1.20000000e+01  1.20000000e+01  1.00782503e+00
  1.00782503e+00  1.20000000e+01  1.00782503e+00  1.00782503e+00  1.00782503e+00
  1.00782503e+00  1.59949146e+01  1.59949146e+01  1.00782503e+00  1.00782503e+00
Number of primitive shells                 I              151
Number of contracted shells                I               72
Pure/Cartesian d shells                    I                1
Pure/Cartesian f shells                    I                1
Highest angular momentum                   I                2
Largest degree of contraction              I                6
Shell types                                I   N=          72
           0           0           1           0           1           2
           0           1           0           0           1           0
           1           2           0           1           0           0
           1           0           1           2           0           1
           0           0           1           0           1           2
           0           1           0           0           0           0
           0           0           1           0           1           2
           0           1           0           0           0           0
           0           0           0           0           0           0
           1           0           1           2           0           1
           0           0           1           0           1           2
           0           1           0           0           0           0
Number of primitives per shell             I   N=          72
           6           3           3           1           1           1
           1           1           6           3           3           1
           1           1           1           1           6           3
           3           1           1           1           1           1
           6           3           3           1           1           1
           1           1           3           1           3           1
           6           3           3           1           1           1
           1           1           3           1           3           1
           3           1           3           1           6           3
           3           1           1           1           1           1
           6           3           3           1           1           1
           1           1           3           1           3           1
Shell to atom map                          I   N=          72
           1           1           1           1           1           1
           1           1           2           2           2           2
           2           2           2           2           3           3
           3           3           3           3           3           3
           4           4           4           4           4           4
           4           4           5           5           6           6
           7           7           7           7           7           7
           7           7           8           8           9           9
          10          10          11          11          12          12
          12          12          12          12          12          12
          13          13          13          13          13          13
          13          13          14          14          15          15
Primitive exponents                        R   N=         151
  5.48467170e+03  8.25234950e+02  1.88046960e+02  5.29645000e+01  1.68975700e+01
  5.79963530e+00  1.55396160e+01  3.59993360e+00  1.01376180e+00  1.55396160e+01
  3.59993360e+00  1.01376180e+00  2.70005800e-01  2.70005800e-01  8.00000000e-01
  8.45000000e-02  8.45000000e-02  3.04752490e+03  4.57369510e+02  1.03948690e+02
  2.92101550e+01  9.28666300e+00  3.16392700e+00  7.86827240e+00  1.88128850e+00
  5.44249300e-01  7.86827240e+00  1.88128850e+00  5.44249300e-01  1.68714400e-01
  1.68714400e-01  8.00000000e-01  4.38000000e-02  4.38000000e-02  3.04752490e+03
  4.57369510e+02  1.03948690e+02  2.92101550e+01  9.28666300e+00  3.16392700e+00
  7.86827240e+00  1.88128850e+00  5.44249300e-01  7.86827240e+00  1.88128850e+00
  5.44249300e-01  1.68714400e-01  1.68714400e-01  8.00000000e-01  4.38000000e-02
  4.38000000e-02  3.04752490e+03  4.57369510e+02  1.03948690e+02  2.92101550e+01
  9.28666300e+00  3.16392700e+00  7.86827240e+00  1.88128850e+00  5.44249300e-01
  7.86827240e+00  1.88128850e+00  5.44249300e-01  1.68714400e-01  1.68714400e-01
  8.00000000e-01  4.38000000e-02  4.38000000e-02  1.87311370e+01  2.82539370e+00
  6.40121700e-01  1.61277800e-01  1.87311370e+01  2.82539370e+00  6.40121700e-01
  1.61277800e-01  3.04752490e+03  4.57369510e+02  1.03948690e+02  2.92101550e+01
  9.28666300e+00  3.16392700e+00  7.86827240e+00  1.88128850e+00  5.44249300e-01
  7.86827240e+00  1.88128850e+00  5.44249300e-01  1.68714400e-01  1.68714400e-01
  8.00000000e-01  4.38000000e-02  4.38000000e-02  1.87311370e+01  2.82539370e+00
  6.40121700e-01  1.61277800e-01  1.87311370e+01  2.82539370e+00  6.40121700e-01
  1.61277800e-01  1.87311370e+01  2.82539370e+00  6.40121700e-01  1.61277800e-01
  1.87311370e+01  2.82539370e+00  6.40121700e-01  1.61277800e-01  5.48467170e+03
  8.25234950e+02  1.88046960e+02  5.29645000e+01  1.68975700e+01  5.79963530e+00
  1.55396160e+01  3.59993360e+00  1.01376180e+00  1.55396160e+01  3.59993360e+00
  1.01376180e+00  2.70005800e-01  2.70005800e-01  8.00000000e-01  8.45000000e-02
  8.45000000e-02  5.48467170e+03  8.25234950e+02  1.88046960e+02  5.29645000e+01
  1.68975700e+01  5.79963530e+00  1.55396160e+01  3.59993360e+00  1.01376180e+00
  1.55396160e+01  3.59993360e+00  1.01376180e+00  2.70005800e-01  2.70005800e-01
  8.00000000e-01  8.45000000e-02  8.45000000e-02  1.87311370e+01  2.82539370e+00
  6.40121700e-01  1.61277800e-01  1.87311370e+01  2.82539370e+00  6.40121700e-01
  1.61277800e-01
Contraction coefficients                   R   N=         151
  1.83109981e-03  1.39500985e-02  6.84450927e-02  2.32714275e-01  4.70192950e-01
  3.58520862e-01 -1.10777504e-01 -1.48026305e-01  1.13076704e+00  7.08742995e-02
  3.39752798e-01  7.27158595e-01  1.00000000e+00  1.00000000e+00  1.00000000e+00
  1.00000000e+00  1.00000000e+00  1.83470016e-03  1.40373012e-02  6.88426061e-02
  2.32184421e-01  4.67941342e-01  3.62312032e-01 -1.19332409e-01 -1.60854212e-01
  1.14345648e+00  6.89990956e-02  3.16423980e-01  7.44308252e-01  1.00000000e+00
  1.00000000e+00  1.00000000e+00  1.00000000e+00  1.00000000e+00  1.83470016e-03
  1.40373012e-02  6.88426061e-02  2.32184421e-01  4.67941342e-01  3.62312032e-01
 -1.19332409e-01 -1.60854212e-01  1.14345648e+00  6.89990956e-02  3.16423980e-01
  7.44308252e-01  1.00000000e+00  1.00000000e+00  1.00000000e+00  1.00000000e+00
  1.00000000e+00  1.83470016e-03  1.40373012e-02  6.88426061e-02  2.32184421e-01
  4.67941342e-01  3.62312032e-01 -1.19332409e-01 -1.60854212e-01  1.14345648e+00
  6.89990956e-02  3.16423980e-01  7.44308252e-01  1.00000000e+00  1.00000000e+00
  1.00000000e+00  1.00000000e+00  1.00000000e+00  3.34945995e-02  2.34726947e-01
  8.13757318e-01  1.00000000e+00  3.34945995e-02  2.34726947e-01  8.13757318e-01
  1.00000000e+00  1.83470016e-03  1.40373012e-02  6.88426061e-02  2.32184421e-01
  4.67941342e-01  3.62312032e-01 -1.19332409e-01 -1.60854212e-01  1.14345648e+00
  6.89990956e-02  3.16423980e-01  7.44308252e-01  1.00000000e+00  1.00000000e+00
  1.00000000e+00  1.00000000e+00  1.00000000e+00  3.34945995e-02  2.34726947e-01
  8.13757318e-01  1.00000000e+00  3.34945995e-02  2.34726947e-01  8.13757318e-01
  1.00000000e+00  3.34945995e-02  2.34726947e-01  8.13757318e-01  1.00000000e+00
  3.34945995e-02  2.34726947e-01  8.13757318e-01  1.00000000e+00  1.83109981e-03
  1.39500985e-02  6.84450927e-02  2.32714275e-01  4.70192950e-01  3.58520862e-01
 -1.10777504e-01 -1.48026305e-01  1.13076704e+00  7.08742995e-02  3.39752798e-01
  7.27158595e-01  1.00000000e+00  1.00000000e+00  1.00000000e+00  1.00000000e+00
  1.00000000e+00  1.83109981e-03  1.39500985e-02  6.84450927e-02  2.32714275e-01
  4.70192950e-01  3.58520862e-01 -1.10777504e-01 -1.48026305e-01  1.13076704e+00
  7.08742995e-02  3.39752798e-01  7.27158595e-01  1.00000000e+00  1.00000000e+00
  1.00000000e+00  1.00000000e+00  1.00000000e+00  3.34945995e-02  2.34726947e-01
  8.13757318e-01  1.00000000e+00  3.34945995e-02  2.34726947e-01  8.13757318e-01
  1.00000000e+00
Coordinates of each shell                  R   N=         216
 -4.58357110e+00 -4.37365022e+00  4.10894118e-01 -4.58357110e+00 -4.37365022e+00
  4.10894118e-01 -4.58357110e+00 -4.37365022e+00  4.10894118e-01 -4.58357110e+00
 -4.37365022e+00  4.10894118e-01 -4.58357110e+00 -4.37365022e+00  4.10894118e-01
 -4.58357110e+00 -4.37365022e+00  4.10894118e-01 -4.58357110e+00 -4.37365022e+00
  4.10894118e-01 -4.58357110e+00 -4.37365022e+00  4.10894118e-01 -3.81066887e+00
 -1.80572582e+00  6.70099723e-01 -3.81066887e+00 -1.80572582e+00  6.70099723e-01
 -3.81066887e+00 -1.80572582e+00  6.70099723e-01 -3.81066887e+00 -1.80572582e+00
  6.70099723e-01 -3.81066887e+00 -1.80572582e+00  6.70099723e-01 -3.81066887e+00
 -1.80572582e+00  6.70099723e-01 -3.81066887e+00 -1.80572582e+00  6.70099723e-01
 -3.81066887e+00 -1.80572582e+00  6.70099723e-01 -1.01963971e+00 -1.40484193e+00
  2.95371548e-02 -1.01963971e+00 -1.40484193e+00  2.95371548e-02 -1.01963971e+00
 -1.40484193e+00  2.95371548e-02 -1.01963971e+00 -1.40484193e+00  2.95371548e-02
 -1.01963971e+00 -1.40484193e+00  2.95371548e-02 -1.01963971e+00 -1.40484193e+00
  2.95371548e-02 -1.01963971e+00 -1.40484193e+00  2.95371548e-02 -1.01963971e+00
 -1.40484193e+00  2.95371548e-02 -2.72300987e-01  1.38896522e+00  1.29956061e-01
 -2.72300987e-01  1.38896522e+00  1.29956061e-01 -2.72300987e-01  1.38896522e+00
  1.29956061e-01 -2.72300987e-01  1.38896522e+00  1.29956061e-01 -2.72300987e-01
  1.38896522e+00  1.29956061e-01 -2.72300987e-01  1.38896522e+00  1.29956061e-01
 -2.72300987e-01  1.38896522e+00  1.29956061e-01 -2.72300987e-01  1.38896522e+00
  1.29956061e-01 -6.36881710e-01 -2.16802941e+00 -1.85691058e+00 -6.36881710e-01
 -2.16802941e+00 -1.85691058e+00  1.72786195e-01 -2.47045042e+00  1.35044460e+00
  1.72786195e-01 -2.47045042e+00  1.35044460e+00  2.53876922e+00  1.82689252e+00
 -3.25695084e-01  2.53876922e+00  1.82689252e+00 -3.25695084e-01  2.53876922e+00
  1.82689252e+00 -3.25695084e-01  2.53876922e+00  1.82689252e+00 -3.25695084e-01
  2.53876922e+00  1.82689252e+00 -3.25695084e-01  2.53876922e+00  1.82689252e+00
 -3.25695084e-01  2.53876922e+00  1.82689252e+00 -3.25695084e-01  2.53876922e+00
  1.82689252e+00 -3.25695084e-01 -7.44406534e-01  2.20543227e+00  1.98489018e+00
 -7.44406534e-01  2.20543227e+00  1.98489018e+00 -1.35342146e+00  2.47918939e+00
 -1.27194317e+00 -1.35342146e+00  2.47918939e+00 -1.27194317e+00 -4.22037387e+00
 -1.10964287e+00  2.59073238e+00 -4.22037387e+00 -1.10964287e+00  2.59073238e+00
 -5.01813334e+00 -7.52484957e-01 -6.40562316e-01 -5.01813334e+00 -7.52484957e-01
 -6.40562316e-01  3.25989430e+00  4.29969202e+00 -4.79098877e-01  3.25989430e+00
  4.29969202e+00 -4.79098877e-01  3.25989430e+00  4.29969202e+00 -4.79098877e-01
  3.25989430e+00  4.29969202e+00 -4.79098877e-01  3.25989430e+00  4.29969202e+00
 -4.79098877e-01  3.25989430e+00  4.29969202e+00 -4.79098877e-01  3.25989430e+00
  4.29969202e+00 -4.79098877e-01  3.25989430e+00  4.29969202e+00 -4.79098877e-01
  4.10352004e+00  1.83746690e-01 -5.25354514e-01  4.10352004e+00  1.83746690e-01
 -5.25354514e-01  4.10352004e+00  1.83746690e-01 -5.25354514e-01  4.10352004e+00
  1.83746690e-01 -5.25354514e-01  4.10352004e+00  1.83746690e-01 -5.25354514e-01
  4.10352004e+00  1.83746690e-01 -5.25354514e-01  4.10352004e+00  1.83746690e-01
 -5.25354514e-01  4.10352004e+00  1.83746690e-01 -5.25354514e-01  1.81448683e+00
  5.41934714e+00 -3.01460411e-01  1.81448683e+00  5.41934714e+00 -3.01460411e-01
 -3.60497793e+00 -5.40877112e+00  1.56520027e+00 -3.60497793e+00 -5.40877112e+00
  1.56520027e+00
Total Energy                               R     -3.829271417944867e+02
Alpha Orbital Energies                     R   N=         149
 -1.92183522e+01 -1.91681391e+01 -1.91587869e+01 -1.03404038e+01 -1.02500759e+01
 -1.02328875e+01 -1.02067873e+01 -1.11890835e+00 -1.03920721e+00 -1.03495355e+00
 -8.19485720e-01 -7.23939686e-01 -6.44039201e-01 -6.21927988e-01 -5.41936218e-01
 -5.21876873e-01 -4.96717022e-01 -4.73373978e-01 -4.58499009e-01 -4.44657027e-01
 -4.21835488e-01 -4.01193954e-01 -3.84882482e-01 -3.71389104e-01 -3.42502567e-01
 -3.36439689e-01 -2.94444920e-01 -2.88690721e-01 -2.36119872e-02 -1.33083325e-02
 -2.83109488e-03  1.98856076e-02  2.63414186e-02  3.13203236e-02  5.76037933e-02
  6.30230794e-02  6.80752880e-02  7.38027343e-02  8.83292069e-02  9.25775480e-02
  1.05728865e-01  1.10138969e-01  1.30835409e-01  1.48964040e-01  1.56664700e-01
  1.62650221e-01  1.74117524e-01  1.86763163e-01  1.88055579e-01  2.07293180e-01
  2.13927388e-01  2.22645553e-01  2.30603860e-01  2.37274982e-01  2.49986593e-01
  2.51365556e-01  2.63994655e-01  2.70178290e-01  2.79064560e-01  2.93271807e-01
  2.99138972e-01  3.02897218e-01  3.12147260e-01  3.18934222e-01  3.31003459e-01
  3.40277031e-01  3.51709163e-01  3.72418718e-01  3.90408586e-01  4.02524019e-01
  4.83539230e-01  5.98789864e-01  6.32086000e-01  6.41698645e-01  6.50584745e-01
  6.78096055e-01  7.03918723e-01  7.32193238e-01  7.45402228e-01  7.84217472e-01
  8.60026114e-01  8.82523819e-01  8.91461318e-01  8.96773645e-01  9.31048203e-01
  1.00903759e+00  1.02207007e+00  1.02320755e+00  1.05838362e+00  1.06980172e+00
  1.09493248e+00  1.10562623e+00  1.13215001e+00  1.14272359e+00  1.21716223e+00
  1.23152806e+00  1.24541727e+00  1.27890758e+00  1.29588768e+00  1.31911116e+00
  1.34440007e+00  1.36635321e+00  1.39732667e+00  1.41607748e+00  1.45628706e+00
  1.48124853e+00  1.55794935e+00  1.59110565e+00  1.65100701e+00  1.66613989e+00
  1.67515440e+00  1.72667890e+00  1.75906179e+00  1.77390193e+00  1.80063614e+00
  1.80478256e+00  1.87998128e+00  1.89775609e+00  1.90777639e+00  1.93452406e+00
  1.97553778e+00  1.98797244e+00  2.00469751e+00  2.07892859e+00  2.12919360e+00
  2.15681944e+00  2.23105384e+00  2.29722663e+00  2.32436761e+00  2.39755691e+00
  2.42755056e+00  2.45765007e+00  2.51607760e+00  2.53095361e+00  2.61765265e+00
  2.63368849e+00  2.69854791e+00  2.80209344e+00  2.87212901e+00  2.93808489e+00
  3.10083075e+00  3.12796559e+00  4.06138023e+00  4.07479505e+00  4.18303658e+00
  4.27176352e+00  4.39761705e+00  4.47160311e+00  4.59977244e+00
Alpha MO coefficients                      R   N=       22201
 -1.53926866e-06 -9.67585926e-06  1.27968749e-06 -5.74685677e-07 -2.43989970e-06
  5.54106194e-05  7.98294332e-06  2.49630669e-05  1.44455265e-05 -6.17132438e-06
 -7.13127794e-07 -6.29476020e-06  4.74094829e-06  2.43230890e-06 -1.31073755e-06
  8.47758051e-05  1.54783894e-04  1.27325620e-05 -9.09093099e-06  5.12305171e-06
  3.45296555e-05 -1.45357922e-05 -2.68512495e-06  5.39778670e-06 -3.42469118e-04
 -1.19963668e-04  1.20592162e-05  1.88692498e-05 -8.38686792e-06 -5.69968576e-08
  4.53993142e-06 -7.97858647e-06  3.66498042e-06  8.96116840e-07  5.54383443e-03
  1.14939762e-03 -1.08578284e-04 -4.09455462e-04 -5.53546812e-06 -4.20107469e-05
  3.70141559e-05  2.00832703e-05 -3.70031125e-06  4.83184240e-04 -2.52446735e-04
  1.50639332e-04  7.06379535e-05  9.22511618e-07  2.50313685e-05 -1.05471334e-05
  3.01277587e-06 -5.78657572e-06  4.25198619e-06 -3.27675740e-03  3.58221841e-03
  1.08062306e-03 -5.38798399e-04  1.35600948e-05  1.39813710e-04 -2.59168801e-05
 -3.65907587e-05  3.95650549e-06 -7.79341165e-04 -7.12260623e-05  2.56216986e-04
  2.30034218e-05 -3.55346109e-05 -4.36032267e-05  2.03330017e-05 -4.88601356e-05
  9.64613758e-06  7.39211859e-06 -2.03602711e-03 -9.49718496e-04 -9.17390102e-04
  1.59220238e-04  7.28115319e-06 -7.06250147e-06  1.51526130e-05 -4.23197904e-05
 -3.95061683e-05  1.08924848e-04  1.70355000e-04  3.76794412e-04 -3.19593768e-05
 -1.92286365e-04 -7.42685094e-04 -3.73643274e-04  1.13645677e-04 -5.70737533e-05
  2.47211019e-04 -1.11178337e-04  1.05747367e-04 -1.17473474e-05 -2.42321566e-05
  1.58629018e-03  4.88237143e-04  3.24361753e-03 -4.05912707e-05 -7.54524633e-07
  1.67204148e-04 -2.63574700e-06  1.86318396e-04  1.35452898e-05 -9.81307699e-06
  1.63248412e-05 -3.42422182e-05  9.92565371e-01  2.53785073e-02 -1.13688445e-03
 -2.36588416e-04  1.63962719e-04  1.50170570e-02  8.84027433e-04  6.32688817e-05
 -1.18156326e-04 -8.66068357e-03 -8.79254696e-03 -8.57385278e-03 -4.63278018e-05
  1.46145092e-05  1.23539451e-05 -6.35186836e-03 -8.42963779e-04  4.92015842e-04
  8.06334073e-05 -2.65639462e-05  1.26800078e-04 -5.58864441e-06 -7.90970611e-07
  2.04904827e-06 -2.59395678e-04  7.86958245e-05  5.76982182e-05 -1.79298185e-05
  4.26353514e-05 -5.39637501e-05  9.90297649e-05  1.79039904e-05  8.35728210e-06
  2.29396420e-07  1.71082792e-03 -1.34501096e-04  5.08160933e-04  3.45533796e-05
  3.90075996e-04 -6.24711725e-04  3.40919579e-07 -5.42830633e-05  9.92595433e-01
  2.53815884e-02  8.39910410e-04  3.00924558e-04  7.65495755e-04  1.46875243e-02
 -5.64416527e-04 -1.65399270e-04 -5.39937291e-04 -8.54770412e-03 -8.73784823e-03
 -8.53541273e-03 -5.87537158e-05 -4.52730109e-05 -1.16883375e-05 -6.26482027e-03
  3.42567690e-04 -4.48142409e-04  3.72609937e-04 -3.96097989e-05 -4.98686561e-06
 -8.24611290e-05 -3.26718035e-04 -4.18588254e-05 -4.33287623e-04  5.89819945e-05
  1.14786912e-04  2.63602021e-04 -6.14072961e-05  3.71499575e-04 -7.40329944e-05
  1.30124402e-04  5.05446003e-06  3.07562289e-05  3.34285270e-03 -2.11997084e-04
 -2.28237154e-03 -5.35871116e-04  1.35300440e-06  5.19605007e-05  7.39371663e-06
  1.39886745e-05  9.76728334e-06  4.48599787e-05 -3.77349009e-04 -1.49212573e-04
 -6.23807876e-05  5.86959306e-06 -5.34015598e-05  4.97735808e-06 -3.79391813e-05
  5.04867386e-06  8.51195390e-07 -5.17667532e-03  3.59893941e-04 -4.42057279e-04
 -1.77289252e-04 -3.80355297e-06 -3.33659922e-05 -1.24197287e-05 -1.12830777e-05
  7.28441574e-07  2.79833141e-04  1.32886444e-04 -1.09402108e-04  2.30925930e-05
  2.48824592e-06  2.36272544e-05 -8.56470256e-06 -1.73688428e-06 -4.39253102e-06
 -1.05779388e-06  9.23759179e-04 -1.93519402e-03 -1.14467813e-03  6.09025871e-04
 -3.20335627e-05  2.89444951e-04 -1.96640854e-05  3.49418111e-04 -1.90073248e-06
 -2.37263166e-07  3.26661269e-06  5.54526152e-06  6.88263727e-06 -1.28059017e-04
  3.92830059e-05 -8.33654306e-05 -5.05215330e-05 -7.31785721e-06 -1.45524717e-05
 -3.20408031e-06 -5.51178184e-06  3.21634103e-06  1.40113669e-06  3.12031163e-03
 -7.14819894e-04 -7.73930125e-05 -8.67175207e-05  5.54008096e-06 -2.75906634e-05
 -1.34600031e-06  8.50160069e-05 -1.01911106e-05  2.59425175e-04  4.06328716e-05
  4.76716216e-04 -3.86523119e-06 -1.81727849e-05  6.62955567e-07  3.35846446e-06
 -1.43999322e-06  1.04595334e-04 -1.91447405e-05 -5.22027920e-05  1.13318040e-05
 -9.00901839e-06 -1.99405861e-06 -1.15264117e-05  4.56842263e-06  5.18663918e-07
 -3.57500258e-06 -5.26295015e-05  1.17783744e-05  2.78518257e-05  1.63655767e-05
  1.73882912e-06 -2.82368746e-06  4.14554361e-06  1.54343838e-06  2.15345630e-06
 -1.04306595e-05 -1.69881015e-05  5.30154095e-06 -6.40358071e-06  1.03586571e-06
 -1.80075397e-07 -7.59632394e-06  8.38630863e-07 -1.06444058e-06  3.26003459e-06
 -3.91112872e-06 -2.56255142e-05 -6.43264140e-05  6.19611007e-05 -4.81541342e-06
  3.77505891e-05  3.53595676e-04 -4.96440914e-04 -3.74289539e-06 -4.38564263e-06
  1.25111984e-06 -4.58576260e-06 -2.67405017e-06  9.46968260e-06 -1.94630260e-05
  1.52574696e-05  1.52863507e-05  1.01159313e-06 -5.67099329e-06 -7.95768644e-06
 -1.93823214e-06 -2.62385318e-06  2.21687860e-06 -1.50473285e-05  1.33177448e-04
 -7.48867751e-05 -3.03072554e-05 -9.91644952e-07 -1.06708549e-05  1.34707803e-05
  6.40944268e-06  1.30606356e-06  2.38580476e-04  1.43414923e-04  3.58722574e-06
 -5.40991173e-05  4.17668420e-06  5.73385616e-07  2.88725431e-06 -2.15023903e-06
  1.92430562e-06  2.36064856e-07  3.45989346e-03  7.58227039e-04 -6.02494699e-05
 -2.38052152e-04  1.42651261e-05  3.48359505e-05  7.53399983e-06 -1.40827489e-05
  2.26438776e-06 -5.83142854e-04  2.05126282e-04 -2.93151205e-05 -9.15881493e-05
  5.44206789e-05  4.29000378e-06  3.51198637e-05  1.30902482e-05 -6.94468217e-06
 -2.51873039e-06  3.90814698e-04  1.54162369e-03  1.50769777e-03 -1.45486429e-04
 -5.45138134e-06  1.43679501e-05  1.39751161e-05  3.08250483e-05 -6.90725766e-06
  1.44069573e-05 -2.25322703e-04 -4.51964054e-04  7.28042287e-05 -5.11060910e-05
 -1.38022824e-06 -6.71955140e-06  5.18524163e-05  6.07785731e-06 -6.59590318e-06
 -4.65182899e-03  2.10039525e-04  2.18340002e-03  2.12476651e-06 -1.23172421e-05
  2.11233361e-04  1.25785307e-05  2.68160095e-04 -8.92056266e-06  3.94685001e-04
  1.57376945e-04 -1.24734689e-04 -2.19920889e-05  1.79074802e-04 -7.51230982e-04
  9.39969228e-04  9.18101551e-05 -3.26783803e-04 -3.62934969e-04 -1.78136983e-04
  2.77374680e-04  2.19046141e-05 -3.71538265e-05  2.88799278e-03  5.87955225e-04
 -2.36010830e-03 -2.42839873e-05 -2.23646885e-05  1.13761825e-04 -4.24196514e-06
  1.31832596e-04 -9.82067793e-06  8.16900563e-05 -7.72963218e-06  3.76406879e-05
  6.14133408e-05  1.14762185e-04 -8.12078601e-06  1.89274174e-05 -9.18240723e-08
 -5.40186266e-04  8.22539007e-05  9.45847796e-05 -8.97644948e-06  7.27130594e-05
 -6.75938084e-05  5.27379157e-05  8.35757798e-05 -5.24095123e-06 -9.62056561e-06
  6.38106313e-04  9.58900771e-05  7.06870739e-05 -3.21720804e-05  9.92572845e-01
  2.52507105e-02 -9.18239522e-04  9.93903282e-04  1.19114896e-04  1.56967304e-02
  1.01829830e-04 -2.87893506e-04 -1.29391629e-05 -8.54168376e-03 -8.55413840e-03
 -8.64040937e-03 -9.52975918e-05 -1.53684806e-05  1.21383205e-05 -6.75129053e-03
  2.27491070e-04  2.60319404e-04 -2.62833863e-05  3.37011042e-05 -7.66593115e-05
  4.23730798e-06 -2.87185767e-05  6.91737332e-06  2.51380245e-05  1.41109400e-05
  3.11729830e-06 -4.20994516e-06 -4.38701105e-05 -5.84253168e-05  4.13645465e-05
  2.63859839e-05  7.83956712e-06  4.08166457e-05  2.08427384e-05 -3.43748555e-06
  2.81982954e-06  6.48120945e-06  4.37642601e-04  1.57983628e-04  2.06559395e-04
  7.24853459e-05 -2.51755362e-05 -6.90404601e-05 -4.03800156e-05 -4.07561937e-05
  4.16380775e-06  2.24463732e-04  2.13509315e-04  4.65934954e-04  1.89548417e-05
 -1.86793867e-05 -5.02892693e-05 -2.60769030e-05  1.98254153e-05  1.62215466e-06
 -1.01739866e-05  5.90409480e-03  1.34195418e-03  3.47429770e-04 -3.39085150e-04
 -3.18800467e-06  2.74438858e-05 -6.87757232e-08 -2.24906265e-05  3.13843122e-06
 -8.25768918e-04 -2.85012932e-04 -6.88471169e-04 -1.81642373e-05  3.93374302e-06
 -2.45507008e-05 -3.04013743e-05 -1.67729645e-05 -5.41380014e-06  3.22339033e-06
 -1.23242632e-02  1.92905331e-03 -1.53469845e-03 -6.12010351e-04  8.90077763e-04
 -2.93690582e-04 -1.35222776e-04 -1.48990088e-05  3.51325027e-05  5.70141135e-03
  2.20435535e-03  2.71334353e-04 -4.70060296e-04 -3.98284910e-04 -1.47839721e-04
 -1.44302751e-04 -3.82822496e-05  5.35334235e-05  4.84931019e-06  2.69351115e-02
  4.45804280e-03 -1.93154120e-03 -9.92149050e-04  6.15797137e-05 -4.39971050e-04
  6.28319551e-05 -5.00950745e-04  9.93200741e-01  4.95052298e-02  7.86923812e-04
  4.69087029e-04 -1.22568385e-04 -1.79981942e-02  2.88253961e-03 -7.82698161e-04
 -4.08554676e-04 -8.42580847e-03 -8.03234917e-03 -8.97018113e-03 -3.18476508e-04
 -9.23479047e-05  2.63982056e-05 -2.35138629e-02  6.88140831e-03  6.85497432e-04
 -9.66122672e-04 -1.10098452e-04 -7.79033044e-04 -1.20801410e-04 -9.34435844e-04
 -1.24614293e-05 -2.77225561e-04 -1.83710451e-05 -2.33855847e-04 -8.56398146e-06
  3.12490484e-04  6.78981848e-05  3.90426651e-05 -9.52259633e-06 -3.61688691e-04
 -4.21261567e-04  8.02819512e-04  4.08462875e-05  2.80030848e-04 -4.98858599e-04
  3.00520068e-04 -2.17971944e-04  1.04049859e-05  4.96742659e-05  7.37329400e-03
 -3.10745676e-03 -1.17381107e-03  4.64589120e-04 -1.21006099e-04  5.07227006e-04
 -1.87297045e-05 -3.05852734e-06  3.18498034e-06 -2.69199994e-03  7.07025362e-04
 -9.81077215e-04 -8.56334541e-05  2.59190833e-04  8.14824766e-05  4.37255557e-04
  1.87983435e-04  2.80762127e-05 -1.98279848e-05  5.71067547e-03 -2.68267514e-03
  1.85386572e-03  3.52246612e-04  1.30375253e-04 -2.66328118e-03  2.39773180e-05
 -1.37521488e-04 -4.77053078e-05  1.79705767e-05 -2.47804499e-05 -7.68774029e-05
 -1.81655417e-05  1.41653585e-03  3.16164360e-04  4.66406570e-04  1.15644950e-04
  5.29956663e-05 -4.86997630e-04  1.25467052e-04 -1.62819556e-04  2.17187926e-05
 -1.05833071e-04  5.71450065e-03  1.22407869e-03  2.16079953e-03  2.80337411e-04
  9.93158627e-01  4.98866349e-02 -1.48539111e-04 -7.59322287e-04 -8.81985537e-05
 -2.10249362e-02 -1.12914292e-03  8.31973337e-04  5.95677323e-04 -8.80567083e-03
 -8.61252433e-03 -8.63295181e-03 -3.80529923e-06  6.56523814e-05  9.27430180e-06
 -1.14232686e-02 -2.36645954e-03 -1.73714944e-03  4.13222017e-04  2.38183363e-03
 -2.26725322e-04  1.25439077e-04 -3.68492501e-05 -3.40848675e-05  5.58200182e-03
 -2.51828124e-03 -1.50796246e-04  5.72253749e-04 -3.41600287e-04 -1.42169977e-04
 -1.46654418e-04  1.47354333e-05  7.12554960e-05  2.52255345e-07  1.08006099e-02
 -5.62693270e-04  2.13445214e-03  4.51066959e-04 -4.12184232e-05  2.50746633e-05
  1.02170572e-04  3.56557106e-05 -4.69229848e-06 -1.25720163e-03 -8.31625303e-04
  4.75652623e-04  8.97008208e-05 -2.60413804e-05 -2.39345372e-05 -1.11650099e-05
 -5.52070138e-06 -8.24210284e-06 -2.29555068e-06 -8.99946561e-03 -4.61194033e-03
 -7.56849950e-04  8.46399484e-04 -1.34695810e-04 -3.62191542e-04 -1.37317921e-04
 -3.31560953e-04 -1.81396429e-05 -1.05280152e-04  8.86843570e-06  3.71707853e-05
  1.26221796e-06  4.20763917e-04 -1.10163713e-03 -8.57580088e-04  1.82057740e-04
 -6.12986961e-06 -5.49653403e-05 -4.89643766e-05  1.02482459e-05 -8.30567937e-06
 -1.89291424e-07  6.99722347e-03 -1.36867712e-03  4.78521507e-04  2.01781799e-04
  8.28075064e-06 -2.54639259e-04  1.60967468e-05 -4.31748801e-04 -4.07281401e-05
  3.22225824e-03 -8.40369482e-06  3.38265814e-03 -9.31242983e-06 -5.06090996e-05
 -2.07841339e-05  1.83625506e-05  2.90552554e-06  4.04959994e-04  1.31116578e-04
 -2.95550492e-04 -1.46477160e-05 -4.52211747e-05  2.43492266e-05 -3.48215432e-05
 -7.05374092e-06  3.05870534e-06 -8.46369733e-07  7.92010729e-04 -3.65545041e-04
 -3.55969533e-04  6.82388081e-05 -3.20986820e-06 -1.24107718e-05  4.48557853e-06
 -1.32224860e-05 -1.15872216e-06 -3.21203695e-05  8.71108897e-05  2.36993331e-04
 -1.06626262e-05 -1.85984237e-05  4.21811117e-05 -4.47564374e-05 -1.30480672e-06
 -1.35579312e-06  2.75827966e-07  2.95204774e-04 -7.31394811e-05 -1.46645931e-04
 -1.23194135e-05  2.98101408e-05 -2.94250501e-05 -5.95720309e-05 -4.42725433e-04
 -3.04176044e-05 -1.50468067e-04 -3.31317295e-05 -4.68511508e-05 -9.41593966e-06
  7.14173785e-04  2.99811061e-04  4.54470522e-04  8.09939828e-05 -6.68988450e-05
 -3.24590709e-05 -1.18679866e-04  6.77507862e-05  2.20215765e-05 -1.85652737e-05
  1.46533534e-03  5.88692013e-04 -1.67177010e-05  8.41023056e-05  3.85434357e-05
  6.71832275e-05 -4.78629785e-05 -4.75331225e-05  8.06517709e-06 -1.44590812e-03
 -4.78527808e-04  6.32234545e-04  1.95190991e-04 -3.86338175e-05 -5.55440508e-05
 -1.82202942e-05 -4.67401093e-05 -3.21050452e-06 -2.74096639e-06 -1.70760752e-03
 -7.33534552e-04  8.44909191e-05  1.90652504e-05  3.91597160e-03 -2.83677625e-04
  4.49236192e-05 -9.47462839e-05 -2.94760295e-05  6.98851824e-03  5.43373120e-04
  3.01975353e-03  2.88048256e-04 -1.95833333e-04 -3.80038044e-04 -1.65243987e-04
  1.19281178e-05  1.19823342e-05 -2.28114605e-05  1.02835403e-02  8.14051998e-04
  2.87076125e-03  3.03573314e-04  9.93125204e-01  5.09523811e-02  1.37989955e-04
  1.29214143e-04  8.25161322e-06 -2.51342736e-02 -1.89881288e-03  1.40102844e-03