Generated by Psi4
     FORCE                           RHF                       TESTBAS
Number of atoms                            I               29
Charge                                     I                0
Multiplicity                               I                1
Number of electrons                        I              104
Number of alpha electrons                  I               52
Number of beta electrons                   I               52
Number of basis functions                  I              296
Number of independent functions            I              296
Atomic numbers                             I   N=          29
           6           6           6           6           6           6
           6           6           1           1           8           8
           1           1           1           6           1           1
           7           6           1           1           1           6
           1           1           1           1           1
Nuclear charges                            R   N=          29
  6.00000000e+00  6.00000000e+00  6.00000000e+00  6.00000000e+00  6.00000000e+00
  6.00000000e+00  6.00000000e+00  6.00000000e+00  1.00000000e+00  1.00000000e+00
  8.00000000e+00  8.00000000e+00  1.00000000e+00  1.00000000e+00  1.00000000e+00
  6.00000000e+00  1.00000000e+00  1.00000000e+00  7.00000000e+00  6.00000000e+00
  1.00000000e+00  1.00000000e+00  1.00000000e+00  6.00000000e+00  1.00000000e+00
  1.00000000e+00  1.00000000e+00  1.00000000e+00  1.00000000e+00
Current cartesian coordinates              R   N=          87
  3.05896984e-01 -8.73420421e-01  1.00067848e+00 -1.55248620e+00 -2.04120110e+00
  2.84180543e+00  8.81700466e-01  1.73108085e+00  1.12142450e+00  2.58043258e+00
  2.68379431e+00 -6.18060234e-01  3.70749307e+00  1.16905230e+00 -2.44902378e+00
  3.18500497e+00 -1.38296098e+00 -2.62021580e+00  1.46545441e+00 -2.37561410e+00
 -8.50093179e-01  5.44029862e+00  5.00361077e+00 -2.67089677e+00  2.30608331e-02
  2.94915046e+00  2.53225791e+00  4.06688327e+00 -2.56448423e+00 -4.04597175e+00
  5.24674927e+00  2.63285731e+00 -3.96421256e+00  3.37742738e+00  5.14831460e+00
 -9.20064778e-01  5.29220089e+00  6.54384554e+00 -4.03409721e+00  7.23367348e+00
  5.07006952e+00 -1.62267714e+00  1.03908109e+00 -4.38488669e+00 -9.13410779e-01
 -4.20832362e+00 -2.57736417e+00  1.73762031e+00 -1.76293637e+00 -7.99838477e-01
  4.49496547e+00 -8.15177416e-01 -3.84417101e+00  3.54628416e+00 -5.62049589e+00
 -4.07629575e+00  3.60320173e+00 -7.97227449e+00 -5.20646134e+00  2.70215515e+00
 -9.41169242e+00 -3.85121339e+00  2.03423557e+00 -8.80838973e+00 -6.32568606e+00
  4.22979160e+00 -7.54580168e+00 -6.50025161e+00  1.14022593e+00 -5.55244575e+00
 -1.43949333e-01  8.82560483e-01 -3.96644164e+00 -3.80765609e+00  8.06457882e-02
 -4.46075038e+00  8.49044601e-01 -5.69357209e-01 -5.80557386e+00  1.15230457e+00
  2.48609602e+00 -7.42217017e+00 -5.50377508e-01  9.20385929e-02 -5.96396638e+00
 -3.00395191e+00  5.16683128e+00
Integer atomic weights                     I   N=          29
          12          12          12          12          12          12
          12          12           1           1          15          15
           1           1           1          12           1           1
          14          12           1           1           1          12
           1           1           1           1           1
Real atomic weights                        R   N=          29
  1.20000000e+01  1.20000000e+01  1.20000000e+01  1.20000000e+01  1.20000000e+01
  1.20000000e+01  1.20000000e+01  1.20000000e+01  1.00782503e+00  1.00782503e+00
  1.59949146e+01  1.59949146e+01  1.00782503e+00  1.00782503e+00  1.00782503e+00
  1.20000000e+01  1.00782503e+00  1.00782503e+00  1.40030740e+01  1.20000000e+01
  1.00782503e+00  1.00782503e+00  1.00782503e+00  1.20000000e+01  1.00782503e+00
  1.00782503e+00  1.00782503e+00  1.00782503e+00  1.00782503e+00
Number of primitive shells                 I              298
Number of contracted shells                I              142
Pure/Cartesian d shells                    I                1
Pure/Cartesian f shells                    I                1
Highest angular momentum                   I                2
Largest degree of contraction              I                6
Shell types                                I   N=         142
           0           0           1           0           1           2
           0           1           0           0           1           0
           1           2           0           1           0           0
           1           0           1           2           0           1
           0           0           1           0           1           2
           0           1           0           0           1           0
           1           2           0           1           0           0
           1           0           1           2           0           1
           0           0           1           0           1           2
           0           1           0           0           1           0
           1           2           0           1           0           0
           0           0           0           0           1           0
           1           2           0           1           0           0
           1           0           1           2           0           1
           0           0           0           0           0           0
           0           0           1           0           1           2
           0           1           0           0           0           0
           0           0           1           0           1           2
           0           1           0           0           1           0
           1           2           0           1           0           0
           0           0           0           0           0           0
           1           0           1           2           0           1
           0           0           0           0           0           0
           0           0           0           0
Number of primitives per shell             I   N=         142
           6           3           3           1           1           1
           1           1           6           3           3           1
           1           1           1           1           6           3
           3           1           1           1           1           1
           6           3           3           1           1           1
           1           1           6           3           3           1
           1           1           1           1           6           3
           3           1           1           1           1           1
           6           3           3           1           1           1
           1           1           6           3           3           1
           1           1           1           1           3           1
           3           1           6           3           3           1
           1           1           1           1           6           3
           3           1           1           1           1           1
           3           1           3           1           3           1
           6           3           3           1           1           1
           1           1           3           1           3           1
           6           3           3           1           1           1
           1           1           6           3           3           1
           1           1           1           1           3           1
           3           1           3           1           6           3
           3           1           1           1           1           1
           3           1           3           1           3           1
           3           1           3           1
Shell to atom map                          I   N=         142
           1           1           1           1           1           1
           1           1           2           2           2           2
           2           2           2           2           3           3
           3           3           3           3           3           3
           4           4           4           4           4           4
           4           4           5           5           5           5
           5           5           5           5           6           6
           6           6           6           6           6           6
           7           7           7           7           7           7
           7           7           8           8           8           8
           8           8           8           8           9           9
          10          10          11          11          11          11
          11          11          11          11          12          12
          12          12          12          12          12          12
          13          13          14          14          15          15
          16          16          16          16          16          16
          16          16          17          17          18          18
          19          19          19          19          19          19
          19          19          20          20          20          20
          20          20          20          20          21          21
          22          22          23          23          24          24
          24          24          24          24          24          24
          25          25          26          26          27          27
          28          28          29          29
Primitive exponents                        R   N=         298
  3.04752490e+03  4.57369510e+02  1.03948690e+02  2.92101550e+01  9.28666300e+00
  3.16392700e+00  7.86827240e+00  1.88128850e+00  5.44249300e-01  7.86827240e+00
  1.88128850e+00  5.44249300e-01  1.68714400e-01  1.68714400e-01  8.00000000e-01
  4.38000000e-02  4.38000000e-02  3.04752490e+03  4.57369510e+02  1.03948690e+02
  2.92101550e+01  9.28666300e+00  3.16392700e+00  7.86827240e+00  1.88128850e+00
  5.44249300e-01  7.86827240e+00  1.88128850e+00  5.44249300e-01  1.68714400e-01
  1.68714400e-01  8.00000000e-01  4.38000000e-02  4.38000000e-02  3.04752490e+03
  4.57369510e+02  1.03948690e+02  2.92101550e+01  9.28666300e+00  3.16392700e+00
  7.86827240e+00  1.88128850e+00  5.44249300e-01  7.86827240e+00  1.88128850e+00
  5.44249300e-01  1.68714400e-01  1.68714400e-01  8.00000000e-01  4.38000000e-02
  4.38000000e-02  3.04752490e+03  4.57369510e+02  1.03948690e+02  2.92101550e+01
  9.28666300e+00  3.16392700e+00  7.86827240e+00  1.88128850e+00  5.44249300e-01
  7.86827240e+00  1.88128850e+00  5.44249300e-01  1.68714400e-01  1.68714400e-01
  8.00000000e-01  4.38000000e-02  4.38000000e-02  3.04752490e+03  4.57369510e+02
  1.03948690e+02  2.92101550e+01  9.28666300e+00  3.16392700e+00  7.86827240e+00
  1.88128850e+00  5.44249300e-01  7.86827240e+00  1.88128850e+00  5.44249300e-01
  1.68714400e-01  1.68714400e-01  8.00000000e-01  4.38000000e-02  4.38000000e-02
  3.04752490e+03  4.57369510e+02  1.03948690e+02  2.92101550e+01  9.28666300e+00
  3.16392700e+00  7.86827240e+00  1.88128850e+00  5.44249300e-01  7.86827240e+00
  1.88128850e+00  5.44249300e-01  1.68714400e-01  1.68714400e-01  8.00000000e-01
  4.38000000e-02  4.38000000e-02  3.04752490e+03  4.57369510e+02  1.03948690e+02
  2.92101550e+01  9.28666300e+00  3.16392700e+00  7.86827240e+00  1.88128850e+00
  5.44249300e-01  7.86827240e+00  1.88128850e+00  5.44249300e-01  1.68714400e-01
  1.68714400e-01  8.00000000e-01  4.38000000e-02  4.38000000e-02  3.04752490e+03
  4.57369510e+02  1.03948690e+02  2.92101550e+01  9.28666300e+00  3.16392700e+00
  7.86827240e+00  1.88128850e+00  5.44249300e-01  7.86827240e+00  1.88128850e+00
  5.44249300e-01  1.68714400e-01  1.68714400e-01  8.00000000e-01  4.38000000e-02
  4.38000000e-02  1.87311370e+01  2.82539370e+00  6.40121700e-01  1.61277800e-01
  1.87311370e+01  2.82539370e+00  6.40121700e-01  1.61277800e-01  5.48467170e+03
  8.25234950e+02  1.88046960e+02  5.29645000e+01  1.68975700e+01  5.79963530e+00
  1.55396160e+01  3.59993360e+00  1.01376180e+00  1.55396160e+01  3.59993360e+00
  1.01376180e+00  2.70005800e-01  2.70005800e-01  8.00000000e-01  8.45000000e-02
  8.45000000e-02  5.48467170e+03  8.25234950e+02  1.88046960e+02  5.29645000e+01
  1.68975700e+01  5.79963530e+00  1.55396160e+01  3.59993360e+00  1.01376180e+00
  1.55396160e+01  3.59993360e+00  1.01376180e+00  2.70005800e-01  2.70005800e-01
  8.00000000e-01  8.45000000e-02  8.45000000e-02  1.87311370e+01  2.82539370e+00
  6.40121700e-01  1.61277800e-01  1.87311370e+01  2.82539370e+00  6.40121700e-01
  1.61277800e-01  1.87311370e+01  2.82539370e+00  6.40121700e-01  1.61277800e-01
  3.04752490e+03  4.57369510e+02  1.03948690e+02  2.92101550e+01  9.28666300e+00
  3.16392700e+00  7.86827240e+00  1.88128850e+00  5.44249300e-01  7.86827240e+00
  1.88128850e+00  5.44249300e-01  1.68714400e-01  1.68714400e-01  8.00000000e-01
  4.38000000e-02  4.38000000e-02  1.87311370e+01  2.82539370e+00  6.40121700e-01
  1.61277800e-01  1.87311370e+01  2.82539370e+00  6.40121700e-01  1.61277800e-01
  4.17351100e+03  6.27457900e+02  1.42902100e+02  4.02343300e+01  1.28202100e+01
  4.39043700e+00  1.16263580e+01  2.71628000e+00  7.72218000e-01  1.16263580e+01
  2.71628000e+00  7.72218000e-01  2.12031300e-01  2.12031300e-01  8.00000000e-01
  6.39000000e-02  6.39000000e-02  3.04752490e+03  4.57369510e+02  1.03948690e+02
  2.92101550e+01  9.28666300e+00  3.16392700e+00  7.86827240e+00  1.88128850e+00
  5.44249300e-01  7.86827240e+00  1.88128850e+00  5.44249300e-01  1.68714400e-01
  1.68714400e-01  8.00000000e-01  4.38000000e-02  4.38000000e-02  1.87311370e+01
  2.82539370e+00  6.40121700e-01  1.61277800e-01  1.87311370e+01  2.82539370e+00
  6.40121700e-01  1.61277800e-01  1.87311370e+01  2.82539370e+00  6.40121700e-01
  1.61277800e-01  3.04752490e+03  4.57369510e+02  1.03948690e+02  2.92101550e+01
  9.28666300e+00  3.16392700e+00  7.86827240e+00  1.88128850e+00  5.44249300e-01
  7.86827240e+00  1.88128850e+00  5.44249300e-01  1.68714400e-01  1.68714400e-01
  8.00000000e-01  4.38000000e-02  4.38000000e-02  1.87311370e+01  2.82539370e+00
  6.40121700e-01  1.61277800e-01  1.87311370e+01  2.82539370e+00  6.40121700e-01
  1.61277800e-01  1.87311370e+01  2.82539370e+00  6.40121700e-01  1.61277800e-01
  1.87311370e+01  2.82539370e+00  6.40121700e-01  1.61277800e-01  1.87311370e+01
  2.82539370e+00  6.40121700e-01  1.61277800e-01
Contraction coefficients                   R   N=         298
  1.83470016e-03  1.40373012e-02  6.88426061e-02  2.32184421e-01  4.67941342e-01
  3.62312032e-01 -1.19332409e-01 -1.60854212e-01  1.14345648e+00  6.89990956e-02
  3.16423980e-01  7.44308252e-01  1.00000000e+00  1.00000000e+00  1.00000000e+00
  1.00000000e+00  1.00000000e+00  1.83470016e-03  1.40373012e-02  6.88426061e-02
  2.32184421e-01  4.67941342e-01  3.62312032e-01 -1.19332409e-01 -1.60854212e-01
  1.14345648e+00  6.89990956e-02  3.16423980e-01  7.44308252e-01  1.00000000e+00
  1.00000000e+00  1.00000000e+00  1.00000000e+00  1.00000000e+00  1.83470016e-03
  1.40373012e-02  6.88426061e-02  2.32184421e-01  4.67941342e-01  3.62312032e-01
 -1.19332409e-01 -1.60854212e-01  1.14345648e+00  6.89990956e-02  3.16423980e-01
  7.44308252e-01  1.00000000e+00  1.00000000e+00  1.00000000e+00  1.00000000e+00
  1.00000000e+00  1.83470016e-03  1.40373012e-02  6.88426061e-02  2.32184421e-01
  4.67941342e-01  3.62312032e-01 -1.19332409e-01 -1.60854212e-01  1.14345648e+00
  6.89990956e-02  3.16423980e-01  7.44308252e-01  1.00000000e+00  1.00000000e+00
  1.00000000e+00  1.00000000e+00  1.00000000e+00  1.83470016e-03  1.40373012e-02
  6.88426061e-02  2.32184421e-01  4.67941342e-01  3.62312032e-01 -1.19332409e-01
 -1.60854212e-01  1.14345648e+00  6.89990956e-02  3.16423980e-01  7.44308252e-01
  1.00000000e+00  1.00000000e+00  1.00000000e+00  1.00000000e+00  1.00000000e+00
  1.83470016e-03  1.40373012e-02  6.88426061e-02  2.32184421e-01  4.67941342e-01
  3.62312032e-01 -1.19332409e-01 -1.60854212e-01  1.14345648e+00  6.89990956e-02
  3.16423980e-01  7.44308252e-01  1.00000000e+00  1.00000000e+00  1.00000000e+00
  1.00000000e+00  1.00000000e+00  1.83470016e-03  1.40373012e-02  6.88426061e-02
  2.32184421e-01  4.67941342e-01  3.62312032e-01 -1.19332409e-01 -1.60854212e-01
  1.14345648e+00  6.89990956e-02  3.16423980e-01  7.44308252e-01  1.00000000e+00
  1.00000000e+00  1.00000000e+00  1.00000000e+00  1.00000000e+00  1.83470016e-03
  1.40373012e-02  6.88426061e-02  2.32184421e-01  4.67941342e-01  3.62312032e-01
 -1.19332409e-01 -1.60854212e-01  1.14345648e+00  6.89990956e-02  3.16423980e-01
  7.44308252e-01  1.00000000e+00  1.00000000e+00  1.00000000e+00  1.00000000e+00
  1.00000000e+00  3.34945995e-02  2.34726947e-01  8.13757318e-01  1.00000000e+00
  3.34945995e-02  2.34726947e-01  8.13757318e-01  1.00000000e+00  1.83109981e-03
  1.39500985e-02  6.84450927e-02  2.32714275e-01  4.70192950e-01  3.58520862e-01
 -1.10777504e-01 -1.48026305e-01  1.13076704e+00  7.08742995e-02  3.39752798e-01
  7.27158595e-01  1.00000000e+00  1.00000000e+00  1.00000000e+00  1.00000000e+00
  1.00000000e+00  1.83109981e-03  1.39500985e-02  6.84450927e-02  2.32714275e-01
  4.70192950e-01  3.58520862e-01 -1.10777504e-01 -1.48026305e-01  1.13076704e+00
  7.08742995e-02  3.39752798e-01  7.27158595e-01  1.00000000e+00  1.00000000e+00
  1.00000000e+00  1.00000000e+00  1.00000000e+00  3.34945995e-02  2.34726947e-01
  8.13757318e-01  1.00000000e+00  3.34945995e-02  2.34726947e-01  8.13757318e-01
  1.00000000e+00  3.34945995e-02  2.34726947e-01  8.13757318e-01  1.00000000e+00
  1.83470016e-03  1.40373012e-02  6.88426061e-02  2.32184421e-01  4.67941342e-01
  3.62312032e-01 -1.19332409e-01 -1.60854212e-01  1.14345648e+00  6.89990956e-02
  3.16423980e-01  7.44308252e-01  1.00000000e+00  1.00000000e+00  1.00000000e+00
  1.00000000e+00  1.00000000e+00  3.34945995e-02  2.34726947e-01  8.13757318e-01
  1.00000000e+00  3.34945995e-02  2.34726947e-01  8.13757318e-01  1.00000000e+00
  1.83479944e-03  1.39949958e-02  6.85869792e-02  2.32240930e-01  4.69069858e-01
  3.60454891e-01 -1.14961023e-01 -1.69118034e-01  1.14585223e+00  6.75800232e-02
  3.23907111e-01  7.40895255e-01  1.00000000e+00  1.00000000e+00  1.00000000e+00
  1.00000000e+00  1.00000000e+00  1.83470016e-03  1.40373012e-02  6.88426061e-02
  2.32184421e-01  4.67941342e-01  3.62312032e-01 -1.19332409e-01 -1.60854212e-01
  1.14345648e+00  6.89990956e-02  3.16423980e-01  7.44308252e-01  1.00000000e+00
  1.00000000e+00  1.00000000e+00  1.00000000e+00  1.00000000e+00  3.34945995e-02
  2.34726947e-01  8.13757318e-01  1.00000000e+00  3.34945995e-02  2.34726947e-01
  8.13757318e-01  1.00000000e+00  3.34945995e-02  2.34726947e-01  8.13757318e-01
  1.00000000e+00  1.83470016e-03  1.40373012e-02  6.88426061e-02  2.32184421e-01
  4.67941342e-01  3.62312032e-01 -1.19332409e-01 -1.60854212e-01  1.14345648e+00
  6.89990956e-02  3.16423980e-01  7.44308252e-01  1.00000000e+00  1.00000000e+00
  1.00000000e+00  1.00000000e+00  1.00000000e+00  3.34945995e-02  2.34726947e-01
  8.13757318e-01  1.00000000e+00  3.34945995e-02  2.34726947e-01  8.13757318e-01
  1.00000000e+00  3.34945995e-02  2.34726947e-01  8.13757318e-01  1.00000000e+00
  3.34945995e-02  2.34726947e-01  8.13757318e-01  1.00000000e+00  3.34945995e-02
  2.34726947e-01  8.13757318e-01  1.00000000e+00
Coordinates of each shell                  R   N=         426
  3.05896984e-01 -8.73420421e-01  1.00067848e+00  3.05896984e-01 -8.73420421e-01
  1.00067848e+00  3.05896984e-01 -8.73420421e-01  1.00067848e+00  3.05896984e-01
 -8.73420421e-01  1.00067848e+00  3.05896984e-01 -8.73420421e-01  1.00067848e+00
  3.05896984e-01 -8.73420421e-01  1.00067848e+00  3.05896984e-01 -8.73420421e-01
  1.00067848e+00  3.05896984e-01 -8.73420421e-01  1.00067848e+00 -1.55248620e+00
 -2.04120110e+00  2.84180543e+00 -1.55248620e+00 -2.04120110e+00  2.84180543e+00
 -1.55248620e+00 -2.04120110e+00  2.84180543e+00 -1.55248620e+00 -2.04120110e+00
  2.84180543e+00 -1.55248620e+00 -2.04120110e+00  2.84180543e+00 -1.55248620e+00
 -2.04120110e+00  2.84180543e+00 -1.55248620e+00 -2.04120110e+00  2.84180543e+00
 -1.55248620e+00 -2.04120110e+00  2.84180543e+00  8.81700466e-01  1.73108085e+00
  1.12142450e+00  8.81700466e-01  1.73108085e+00  1.12142450e+00  8.81700466e-01
  1.73108085e+00  1.12142450e+00  8.81700466e-01  1.73108085e+00  1.12142450e+00
  8.81700466e-01  1.73108085e+00  1.12142450e+00  8.81700466e-01  1.73108085e+00
  1.12142450e+00  8.81700466e-01  1.73108085e+00  1.12142450e+00  8.81700466e-01
  1.73108085e+00  1.12142450e+00  2.58043258e+00  2.68379431e+00 -6.18060234e-01
  2.58043258e+00  2.68379431e+00 -6.18060234e-01  2.58043258e+00  2.68379431e+00
 -6.18060234e-01  2.58043258e+00  2.68379431e+00 -6.18060234e-01  2.58043258e+00
  2.68379431e+00 -6.18060234e-01  2.58043258e+00  2.68379431e+00 -6.18060234e-01
  2.58043258e+00  2.68379431e+00 -6.18060234e-01  2.58043258e+00  2.68379431e+00
 -6.18060234e-01  3.70749307e+00  1.16905230e+00 -2.44902378e+00  3.70749307e+00
  1.16905230e+00 -2.44902378e+00  3.70749307e+00  1.16905230e+00 -2.44902378e+00
  3.70749307e+00  1.16905230e+00 -2.44902378e+00  3.70749307e+00  1.16905230e+00
 -2.44902378e+00  3.70749307e+00  1.16905230e+00 -2.44902378e+00  3.70749307e+00
  1.16905230e+00 -2.44902378e+00  3.70749307e+00  1.16905230e+00 -2.44902378e+00
  3.18500497e+00 -1.38296098e+00 -2.62021580e+00  3.18500497e+00 -1.38296098e+00
 -2.62021580e+00  3.18500497e+00 -1.38296098e+00 -2.62021580e+00  3.18500497e+00
 -1.38296098e+00 -2.62021580e+00  3.18500497e+00 -1.38296098e+00 -2.62021580e+00
  3.18500497e+00 -1.38296098e+00 -2.62021580e+00  3.18500497e+00 -1.38296098e+00
 -2.62021580e+00  3.18500497e+00 -1.38296098e+00 -2.62021580e+00  1.46545441e+00
 -2.37561410e+00 -8.50093179e-01  1.46545441e+00 -2.37561410e+00 -8.50093179e-01
  1.46545441e+00 -2.37561410e+00 -8.50093179e-01  1.46545441e+00 -2.37561410e+00
 -8.50093179e-01  1.46545441e+00 -2.37561410e+00 -8.50093179e-01  1.46545441e+00
 -2.37561410e+00 -8.50093179e-01  1.46545441e+00 -2.37561410e+00 -8.50093179e-01
  1.46545441e+00 -2.37561410e+00 -8.50093179e-01  5.44029862e+00  5.00361077e+00
 -2.67089677e+00  5.44029862e+00  5.00361077e+00 -2.67089677e+00  5.44029862e+00
  5.00361077e+00 -2.67089677e+00  5.44029862e+00  5.00361077e+00 -2.67089677e+00
  5.44029862e+00  5.00361077e+00 -2.67089677e+00  5.44029862e+00  5.00361077e+00
 -2.67089677e+00  5.44029862e+00  5.00361077e+00 -2.67089677e+00  5.44029862e+00
  5.00361077e+00 -2.67089677e+00  2.30608331e-02  2.94915046e+00  2.53225791e+00
  2.30608331e-02  2.94915046e+00  2.53225791e+00  4.06688327e+00 -2.56448423e+00
 -4.04597175e+00  4.06688327e+00 -2.56448423e+00 -4.04597175e+00  5.24674927e+00
  2.63285731e+00 -3.96421256e+00  5.24674927e+00  2.63285731e+00 -3.96421256e+00
  5.24674927e+00  2.63285731e+00 -3.96421256e+00  5.24674927e+00  2.63285731e+00
 -3.96421256e+00  5.24674927e+00  2.63285731e+00 -3.96421256e+00  5.24674927e+00
  2.63285731e+00 -3.96421256e+00  5.24674927e+00  2.63285731e+00 -3.96421256e+00
  5.24674927e+00  2.63285731e+00 -3.96421256e+00  3.37742738e+00  5.14831460e+00
 -9.20064778e-01  3.37742738e+00  5.14831460e+00 -9.20064778e-01  3.37742738e+00
  5.14831460e+00 -9.20064778e-01  3.37742738e+00  5.14831460e+00 -9.20064778e-01
  3.37742738e+00  5.14831460e+00 -9.20064778e-01  3.37742738e+00  5.14831460e+00
 -9.20064778e-01  3.37742738e+00  5.14831460e+00 -9.20064778e-01  3.37742738e+00
  5.14831460e+00 -9.20064778e-01  5.29220089e+00  6.54384554e+00 -4.03409721e+00
  5.29220089e+00  6.54384554e+00 -4.03409721e+00  7.23367348e+00  5.07006952e+00
 -1.62267714e+00  7.23367348e+00  5.07006952e+00 -1.62267714e+00  1.03908109e+00
 -4.38488669e+00 -9.13410779e-01  1.03908109e+00 -4.38488669e+00 -9.13410779e-01
 -4.20832362e+00 -2.57736417e+00  1.73762031e+00 -4.20832362e+00 -2.57736417e+00
  1.73762031e+00 -4.20832362e+00 -2.57736417e+00  1.73762031e+00 -4.20832362e+00
 -2.57736417e+00  1.73762031e+00 -4.20832362e+00 -2.57736417e+00  1.73762031e+00
 -4.20832362e+00 -2.57736417e+00  1.73762031e+00 -4.20832362e+00 -2.57736417e+00
  1.73762031e+00 -4.20832362e+00 -2.57736417e+00  1.73762031e+00 -1.76293637e+00
 -7.99838477e-01  4.49496547e+00 -1.76293637e+00 -7.99838477e-01  4.49496547e+00
 -8.15177416e-01 -3.84417101e+00  3.54628416e+00 -8.15177416e-01 -3.84417101e+00
  3.54628416e+00 -5.62049589e+00 -4.07629575e+00  3.60320173e+00 -5.62049589e+00
 -4.07629575e+00  3.60320173e+00 -5.62049589e+00 -4.07629575e+00  3.60320173e+00
 -5.62049589e+00 -4.07629575e+00  3.60320173e+00 -5.62049589e+00 -4.07629575e+00
  3.60320173e+00 -5.62049589e+00 -4.07629575e+00  3.60320173e+00 -5.62049589e+00
 -4.07629575e+00  3.60320173e+00 -5.62049589e+00 -4.07629575e+00  3.60320173e+00
 -7.97227449e+00 -5.20646134e+00  2.70215515e+00 -7.97227449e+00 -5.20646134e+00
  2.70215515e+00 -7.97227449e+00 -5.20646134e+00  2.70215515e+00 -7.97227449e+00
 -5.20646134e+00  2.70215515e+00 -7.97227449e+00 -5.20646134e+00  2.70215515e+00
 -7.97227449e+00 -5.20646134e+00  2.70215515e+00 -7.97227449e+00 -5.20646134e+00
  2.70215515e+00 -7.97227449e+00 -5.20646134e+00  2.70215515e+00 -9.41169242e+00
 -3.85121339e+00  2.03423557e+00 -9.41169242e+00 -3.85121339e+00  2.03423557e+00
 -8.80838973e+00 -6.32568606e+00  4.22979160e+00 -8.80838973e+00 -6.32568606e+00
  4.22979160e+00 -7.54580168e+00 -6.50025161e+00  1.14022593e+00 -7.54580168e+00
 -6.50025161e+00  1.14022593e+00 -5.55244575e+00 -1.43949333e-01  8.82560483e-01
 -5.55244575e+00 -1.43949333e-01  8.82560483e-01 -5.55244575e+00 -1.43949333e-01
  8.82560483e-01 -5.55244575e+00 -1.43949333e-01  8.82560483e-01 -5.55244575e+00
 -1.43949333e-01  8.82560483e-01 -5.55244575e+00 -1.43949333e-01  8.82560483e-01
 -5.55244575e+00 -1.43949333e-01  8.82560483e-01 -5.55244575e+00 -1.43949333e-01
  8.82560483e-01 -3.96644164e+00 -3.80765609e+00  8.06457882e-02 -3.96644164e+00
 -3.80765609e+00  8.06457882e-02 -4.46075038e+00  8.49044601e-01 -5.69357209e-01
 -4.46075038e+00  8.49044601e-01 -5.69357209e-01 -5.80557386e+00  1.15230457e+00
  2.48609602e+00 -5.80557386e+00  1.15230457e+00  2.48609602e+00 -7.42217017e+00
 -5.50377508e-01  9.20385929e-02 -7.42217017e+00 -5.50377508e-01  9.20385929e-02
 -5.96396638e+00 -3.00395191e+00  5.16683128e+00 -5.96396638e+00 -3.00395191e+00
  5.16683128e+00
Total Energy                               R     -6.333943577238322e+02
Alpha Orbital Energies                     R   N=         296
 -1.92023585e+01 -1.92017723e+01 -1.43240197e+01 -1.03113092e+01 -1.02549419e+01
 -1.02534381e+01 -1.02191534e+01 -1.02053389e+01 -1.02038712e+01 -1.02031983e+01
 -1.02004075e+01 -1.01953496e+01 -1.01885487e+01 -1.01762100e+01 -1.13253254e+00
 -1.04076677e+00 -9.06013689e-01 -8.67002188e-01 -7.92944366e-01 -7.60244199e-01
 -7.48586771e-01 -7.00589498e-01 -6.75290610e-01 -6.57482190e-01 -6.28520176e-01
 -6.13611822e-01 -5.84131532e-01 -5.30256640e-01 -5.24014734e-01 -5.20360671e-01
 -4.94900952e-01 -4.77552935e-01 -4.63523005e-01 -4.52469915e-01 -4.44960370e-01
 -4.32837608e-01 -4.24459273e-01 -4.06338571e-01 -4.01880343e-01 -3.93753339e-01
 -3.90247325e-01 -3.87209019e-01 -3.75753102e-01 -3.65722953e-01 -3.57471644e-01
 -3.56010037e-01 -3.44956247e-01 -3.36669099e-01 -3.10486547e-01 -2.52087043e-01
 -2.24502719e-01 -2.12711720e-01 -1.47273263e-02 -4.93093164e-03  4.34100821e-03
  1.18990570e-02  1.47723077e-02  2.10220668e-02  2.75812660e-02  3.08411651e-02
  3.90339514e-02  4.02778412e-02  4.36211780e-02  4.64381676e-02  5.17567786e-02
  6.05788615e-02  6.91746653e-02  7.29825315e-02  8.41614646e-02  9.04798746e-02
  9.21122725e-02  9.60611687e-02  9.95073858e-02  1.03227092e-01  1.12578032e-01
  1.14999249e-01  1.22279089e-01  1.25221605e-01  1.30178509e-01  1.34415106e-01
  1.39432073e-01  1.46381739e-01  1.48402381e-01  1.52446322e-01  1.56473916e-01
  1.66943693e-01  1.72517674e-01  1.76083866e-01  1.80257321e-01  1.87525994e-01
  1.89753356e-01  1.93763062e-01  1.97653357e-01  2.01378933e-01  2.08098269e-01
  2.10721460e-01  2.14630557e-01  2.15485166e-01  2.21680573e-01  2.23900195e-01
  2.30169787e-01  2.33333145e-01  2.35748926e-01  2.44995631e-01  2.50117871e-01
  2.54587122e-01  2.55456174e-01  2.63264000e-01  2.64912905e-01  2.67294031e-01
  2.80715265e-01  2.82908209e-01  2.84098924e-01  2.92668111e-01  2.96145204e-01
  3.00422445e-01  3.01841251e-01  3.04978740e-01  3.11603874e-01  3.15985737e-01
  3.19102461e-01  3.22934553e-01  3.27569571e-01  3.32333960e-01  3.38873112e-01
  3.42468343e-01  3.49315846e-01  3.59969199e-01  3.69151929e-01  3.73670309e-01
  3.78297869e-01  3.91880593e-01  4.01581417e-01  4.12443585e-01  4.18745330e-01
  4.44202816e-01  4.51586357e-01  4.67738470e-01  4.73647237e-01  5.84898709e-01
  6.16892724e-01  6.48932430e-01  6.54329472e-01  6.62526821e-01  6.72230388e-01
  6.83348891e-01  6.86129884e-01  6.94163451e-01  7.03234891e-01  7.14296145e-01
  7.24235087e-01  7.44427623e-01  7.48180639e-01  7.48824276e-01  7.62584013e-01
  7.75243870e-01  7.87132706e-01  7.94565326e-01  8.01125418e-01  8.14452627e-01
  8.32102448e-01  8.37592322e-01  8.42485313e-01  8.80499669e-01  8.83266715e-01
  8.98032482e-01  9.04430042e-01  9.09649906e-01  9.24639793e-01  9.42038420e-01
  9.45688436e-01  9.68150619e-01  9.77049404e-01  9.88295473e-01  1.00237633e+00
  1.02022194e+00  1.02926110e+00  1.03313101e+00  1.06182919e+00  1.06804470e+00
  1.07620041e+00  1.09210496e+00  1.10281957e+00  1.10992064e+00  1.12405121e+00
  1.12869062e+00  1.15702671e+00  1.16822820e+00  1.17583486e+00  1.18743144e+00
  1.20118529e+00  1.20397987e+00  1.21815976e+00  1.23903672e+00  1.24556346e+00
  1.25819684e+00  1.26498643e+00  1.27474659e+00  1.28959104e+00  1.31226543e+00
  1.32737868e+00  1.35657450e+00  1.36430579e+00  1.38646539e+00  1.40762598e+00
  1.41740118e+00  1.43663263e+00  1.44838130e+00  1.47046938e+00  1.47181241e+00