Generated by Psi4
     FORCE                           RHF                       TESTBAS
Number of atoms                            I               27
Charge                                     I                0
Multiplicity                               I                1
Number of electrons                        I               90
Number of alpha electrons                  I               45
Number of beta electrons                   I               45
Number of basis functions                  I              258
Number of independent functions            I              258
Atomic numbers                             I   N=          27
           6           6           6           7           6           6
           6           6           6           1           1           1
           1           1           6           1           1           1
           1           8           1           6           1           1
           1           1           1
Nuclear charges                            R   N=          27
  6.00000000e+00  6.00000000e+00  6.00000000e+00  7.00000000e+00  6.00000000e+00
  6.00000000e+00  6.00000000e+00  6.00000000e+00  6.00000000e+00  1.00000000e+00
  1.00000000e+00  1.00000000e+00  1.00000000e+00  1.00000000e+00  6.00000000e+00
  1.00000000e+00  1.00000000e+00  1.00000000e+00  1.00000000e+00  8.00000000e+00
  1.00000000e+00  6.00000000e+00  1.00000000e+00  1.00000000e+00  1.00000000e+00
  1.00000000e+00  1.00000000e+00
Current cartesian coordinates              R   N=          81
  6.24264304e-01  1.00520819e-01 -1.48235469e+00 -1.66278431e+00  7.04951234e-01
  1.46939331e-01 -1.64521774e+00 -6.09318029e-01  2.76252472e+00 -4.01558966e+00
 -1.05573036e-01  4.11586038e+00  3.01989064e+00  1.05970640e+00 -8.62963656e-01
  5.12212908e+00  4.93617716e-01 -2.35394251e+00  4.86177022e+00 -1.03244872e+00
 -4.49755183e+00  2.48389464e+00 -1.98102878e+00 -5.14212774e+00  3.83092853e-01
 -1.41121886e+00 -3.64352400e+00  3.22271516e+00  2.27209198e+00  7.82222527e-01
 -1.46568087e+00 -2.15072222e+00 -4.15891397e+00  6.96500910e+00  1.24846188e+00
 -1.84770262e+00  6.49811980e+00 -1.46713949e+00 -5.66103796e+00  2.25898578e+00
 -3.15373221e+00 -6.81418711e+00 -4.07370579e+00  2.16911385e+00  5.69278688e+00
 -4.43736329e+00 -1.62888811e+00  5.20821197e+00 -3.98487100e+00  3.84845730e+00
  4.50122977e+00 -2.49964652e+00  2.26241623e+00  7.06593939e+00 -5.85748662e+00
  2.20015830e+00  6.74362120e+00 -1.81883411e+00  3.37715361e+00  6.14179625e-01
 -3.38614117e+00  7.21303097e-02 -8.27896104e-01 -1.31304408e+00 -3.47540829e+00
  2.48968913e+00 -9.85799451e-03  1.53589528e-01  3.81852423e+00 -2.90586785e+00
 -4.30225851e+00  1.44964720e+00 -1.23659475e+00 -4.36632169e+00  4.36011545e+00
  4.30918776e-01 -3.95461133e+00  1.49216459e+00 -1.80872661e+00  4.24254721e+00
 -1.00232762e+00
Integer atomic weights                     I   N=          27
          12          12          12          14          12          12
          12          12          12           1           1           1
           1           1          12           1           1           1
           1          15           1          12           1           1
           1           1           1
Real atomic weights                        R   N=          27
  1.20000000e+01  1.20000000e+01  1.20000000e+01  1.40030740e+01  1.20000000e+01
  1.20000000e+01  1.20000000e+01  1.20000000e+01  1.20000000e+01  1.00782503e+00
  1.00782503e+00  1.00782503e+00  1.00782503e+00  1.00782503e+00  1.20000000e+01
  1.00782503e+00  1.00782503e+00  1.00782503e+00  1.00782503e+00  1.59949146e+01
  1.00782503e+00  1.20000000e+01  1.00782503e+00  1.00782503e+00  1.00782503e+00
  1.00782503e+00  1.00782503e+00
Number of primitive shells                 I              264
Number of contracted shells                I              126
Pure/Cartesian d shells                    I                1
Pure/Cartesian f shells                    I                1
Highest angular momentum                   I                2
Largest degree of contraction              I                6
Shell types                                I   N=         126
           0           0           1           0           1           2
           0           1           0           0           1           0
           1           2           0           1           0           0
           1           0           1           2           0           1
           0           0           1           0           1           2
           0           1           0           0           1           0
           1           2           0           1           0           0
           1           0           1           2           0           1
           0           0           1           0           1           2
           0           1           0           0           1           0
           1           2           0           1           0           0
           1           0           1           2           0           1
           0           0           0           0           0           0
           0           0           0           0           0           0
           1           0           1           2           0           1
           0           0           0           0           0           0
           0           0           0           0           1           0
           1           2           0           1           0           0
           0           0           1           0           1           2
           0           1           0           0           0           0
           0           0           0           0           0           0
Number of primitives per shell             I   N=         126
           6           3           3           1           1           1
           1           1           6           3           3           1
           1           1           1           1           6           3
           3           1           1           1           1           1
           6           3           3           1           1           1
           1           1           6           3           3           1
           1           1           1           1           6           3
           3           1           1           1           1           1
           6           3           3           1           1           1
           1           1           6           3           3           1
           1           1           1           1           6           3
           3           1           1           1           1           1
           3           1           3           1           3           1
           3           1           3           1           6           3
           3           1           1           1           1           1
           3           1           3           1           3           1
           3           1           6           3           3           1
           1           1           1           1           3           1
           6           3           3           1           1           1
           1           1           3           1           3           1
           3           1           3           1           3           1
Shell to atom map                          I   N=         126
           1           1           1           1           1           1
           1           1           2           2           2           2
           2           2           2           2           3           3
           3           3           3           3           3           3
           4           4           4           4           4           4
           4           4           5           5           5           5
           5           5           5           5           6           6
           6           6           6           6           6           6
           7           7           7           7           7           7
           7           7           8           8           8           8
           8           8           8           8           9           9
           9           9           9           9           9           9
          10          10          11          11          12          12
          13          13          14          14          15          15
          15          15          15          15          15          15
          16          16          17          17          18          18
          19          19          20          20          20          20
          20          20          20          20          21          21
          22          22          22          22          22          22
          22          22          23          23          24          24
          25          25          26          26          27          27
Primitive exponents                        R   N=         264
  3.04752490e+03  4.57369510e+02  1.03948690e+02  2.92101550e+01  9.28666300e+00
  3.16392700e+00  7.86827240e+00  1.88128850e+00  5.44249300e-01  7.86827240e+00
  1.88128850e+00  5.44249300e-01  1.68714400e-01  1.68714400e-01  8.00000000e-01
  4.38000000e-02  4.38000000e-02  3.04752490e+03  4.57369510e+02  1.03948690e+02
  2.92101550e+01  9.28666300e+00  3.16392700e+00  7.86827240e+00  1.88128850e+00
  5.44249300e-01  7.86827240e+00  1.88128850e+00  5.44249300e-01  1.68714400e-01
  1.68714400e-01  8.00000000e-01  4.38000000e-02  4.38000000e-02  3.04752490e+03
  4.57369510e+02  1.03948690e+02  2.92101550e+01  9.28666300e+00  3.16392700e+00
  7.86827240e+00  1.88128850e+00  5.44249300e-01  7.86827240e+00  1.88128850e+00
  5.44249300e-01  1.68714400e-01  1.68714400e-01  8.00000000e-01  4.38000000e-02
  4.38000000e-02  4.17351100e+03  6.27457900e+02  1.42902100e+02  4.02343300e+01
  1.28202100e+01  4.39043700e+00  1.16263580e+01  2.71628000e+00  7.72218000e-01
  1.16263580e+01  2.71628000e+00  7.72218000e-01  2.12031300e-01  2.12031300e-01
  8.00000000e-01  6.39000000e-02  6.39000000e-02  3.04752490e+03  4.57369510e+02
  1.03948690e+02  2.92101550e+01  9.28666300e+00  3.16392700e+00  7.86827240e+00
  1.88128850e+00  5.44249300e-01  7.86827240e+00  1.88128850e+00  5.44249300e-01
  1.68714400e-01  1.68714400e-01  8.00000000e-01  4.38000000e-02  4.38000000e-02
  3.04752490e+03  4.57369510e+02  1.03948690e+02  2.92101550e+01  9.28666300e+00
  3.16392700e+00  7.86827240e+00  1.88128850e+00  5.44249300e-01  7.86827240e+00
  1.88128850e+00  5.44249300e-01  1.68714400e-01  1.68714400e-01  8.00000000e-01
  4.38000000e-02  4.38000000e-02  3.04752490e+03  4.57369510e+02  1.03948690e+02
  2.92101550e+01  9.28666300e+00  3.16392700e+00  7.86827240e+00  1.88128850e+00
  5.44249300e-01  7.86827240e+00  1.88128850e+00  5.44249300e-01  1.68714400e-01
  1.68714400e-01  8.00000000e-01  4.38000000e-02  4.38000000e-02  3.04752490e+03
  4.57369510e+02  1.03948690e+02  2.92101550e+01  9.28666300e+00  3.16392700e+00
  7.86827240e+00  1.88128850e+00  5.44249300e-01  7.86827240e+00  1.88128850e+00
  5.44249300e-01  1.68714400e-01  1.68714400e-01  8.00000000e-01  4.38000000e-02
  4.38000000e-02  3.04752490e+03  4.57369510e+02  1.03948690e+02  2.92101550e+01
  9.28666300e+00  3.16392700e+00  7.86827240e+00  1.88128850e+00  5.44249300e-01
  7.86827240e+00  1.88128850e+00  5.44249300e-01  1.68714400e-01  1.68714400e-01
  8.00000000e-01  4.38000000e-02  4.38000000e-02  1.87311370e+01  2.82539370e+00
  6.40121700e-01  1.61277800e-01  1.87311370e+01  2.82539370e+00  6.40121700e-01
  1.61277800e-01  1.87311370e+01  2.82539370e+00  6.40121700e-01  1.61277800e-01
  1.87311370e+01  2.82539370e+00  6.40121700e-01  1.61277800e-01  1.87311370e+01
  2.82539370e+00  6.40121700e-01  1.61277800e-01  3.04752490e+03  4.57369510e+02
  1.03948690e+02  2.92101550e+01  9.28666300e+00  3.16392700e+00  7.86827240e+00
  1.88128850e+00  5.44249300e-01  7.86827240e+00  1.88128850e+00  5.44249300e-01
  1.68714400e-01  1.68714400e-01  8.00000000e-01  4.38000000e-02  4.38000000e-02
  1.87311370e+01  2.82539370e+00  6.40121700e-01  1.61277800e-01  1.87311370e+01
  2.82539370e+00  6.40121700e-01  1.61277800e-01  1.87311370e+01  2.82539370e+00
  6.40121700e-01  1.61277800e-01  1.87311370e+01  2.82539370e+00  6.40121700e-01
  1.61277800e-01  5.48467170e+03  8.25234950e+02  1.88046960e+02  5.29645000e+01
  1.68975700e+01  5.79963530e+00  1.55396160e+01  3.59993360e+00  1.01376180e+00
  1.55396160e+01  3.59993360e+00  1.01376180e+00  2.70005800e-01  2.70005800e-01
  8.00000000e-01  8.45000000e-02  8.45000000e-02  1.87311370e+01  2.82539370e+00
  6.40121700e-01  1.61277800e-01  3.04752490e+03  4.57369510e+02  1.03948690e+02
  2.92101550e+01  9.28666300e+00  3.16392700e+00  7.86827240e+00  1.88128850e+00
  5.44249300e-01  7.86827240e+00  1.88128850e+00  5.44249300e-01  1.68714400e-01
  1.68714400e-01  8.00000000e-01  4.38000000e-02  4.38000000e-02  1.87311370e+01
  2.82539370e+00  6.40121700e-01  1.61277800e-01  1.87311370e+01  2.82539370e+00
  6.40121700e-01  1.61277800e-01  1.87311370e+01  2.82539370e+00  6.40121700e-01
  1.61277800e-01  1.87311370e+01  2.82539370e+00  6.40121700e-01  1.61277800e-01
  1.87311370e+01  2.82539370e+00  6.40121700e-01  1.61277800e-01
Contraction coefficients                   R   N=         264
  1.83470016e-03  1.40373012e-02  6.88426061e-02  2.32184421e-01  4.67941342e-01
  3.62312032e-01 -1.19332409e-01 -1.60854212e-01  1.14345648e+00  6.89990956e-02
  3.16423980e-01  7.44308252e-01  1.00000000e+00  1.00000000e+00  1.00000000e+00
  1.00000000e+00  1.00000000e+00  1.83470016e-03  1.40373012e-02  6.88426061e-02
  2.32184421e-01  4.67941342e-01  3.62312032e-01 -1.19332409e-01 -1.60854212e-01
  1.14345648e+00  6.89990956e-02  3.16423980e-01  7.44308252e-01  1.00000000e+00
  1.00000000e+00  1.00000000e+00  1.00000000e+00  1.00000000e+00  1.83470016e-03
  1.40373012e-02  6.88426061e-02  2.32184421e-01  4.67941342e-01  3.62312032e-01
 -1.19332409e-01 -1.60854212e-01  1.14345648e+00  6.89990956e-02  3.16423980e-01
  7.44308252e-01  1.00000000e+00  1.00000000e+00  1.00000000e+00  1.00000000e+00
  1.00000000e+00  1.83479944e-03  1.39949958e-02  6.85869792e-02  2.32240930e-01
  4.69069858e-01  3.60454891e-01 -1.14961023e-01 -1.69118034e-01  1.14585223e+00
  6.75800232e-02  3.23907111e-01  7.40895255e-01  1.00000000e+00  1.00000000e+00
  1.00000000e+00  1.00000000e+00  1.00000000e+00  1.83470016e-03  1.40373012e-02
  6.88426061e-02  2.32184421e-01  4.67941342e-01  3.62312032e-01 -1.19332409e-01
 -1.60854212e-01  1.14345648e+00  6.89990956e-02  3.16423980e-01  7.44308252e-01
  1.00000000e+00  1.00000000e+00  1.00000000e+00  1.00000000e+00  1.00000000e+00
  1.83470016e-03  1.40373012e-02  6.88426061e-02  2.32184421e-01  4.67941342e-01
  3.62312032e-01 -1.19332409e-01 -1.60854212e-01  1.14345648e+00  6.89990956e-02
  3.16423980e-01  7.44308252e-01  1.00000000e+00  1.00000000e+00  1.00000000e+00
  1.00000000e+00  1.00000000e+00  1.83470016e-03  1.40373012e-02  6.88426061e-02
  2.32184421e-01  4.67941342e-01  3.62312032e-01 -1.19332409e-01 -1.60854212e-01
  1.14345648e+00  6.89990956e-02  3.16423980e-01  7.44308252e-01  1.00000000e+00
  1.00000000e+00  1.00000000e+00  1.00000000e+00  1.00000000e+00  1.83470016e-03
  1.40373012e-02  6.88426061e-02  2.32184421e-01  4.67941342e-01  3.62312032e-01
 -1.19332409e-01 -1.60854212e-01  1.14345648e+00  6.89990956e-02  3.16423980e-01
  7.44308252e-01  1.00000000e+00  1.00000000e+00  1.00000000e+00  1.00000000e+00
  1.00000000e+00  1.83470016e-03  1.40373012e-02  6.88426061e-02  2.32184421e-01
  4.67941342e-01  3.62312032e-01 -1.19332409e-01 -1.60854212e-01  1.14345648e+00
  6.89990956e-02  3.16423980e-01  7.44308252e-01  1.00000000e+00  1.00000000e+00
  1.00000000e+00  1.00000000e+00  1.00000000e+00  3.34945995e-02  2.34726947e-01
  8.13757318e-01  1.00000000e+00  3.34945995e-02  2.34726947e-01  8.13757318e-01
  1.00000000e+00  3.34945995e-02  2.34726947e-01  8.13757318e-01  1.00000000e+00
  3.34945995e-02  2.34726947e-01  8.13757318e-01  1.00000000e+00  3.34945995e-02
  2.34726947e-01  8.13757318e-01  1.00000000e+00  1.83470016e-03  1.40373012e-02
  6.88426061e-02  2.32184421e-01  4.67941342e-01  3.62312032e-01 -1.19332409e-01
 -1.60854212e-01  1.14345648e+00  6.89990956e-02  3.16423980e-01  7.44308252e-01
  1.00000000e+00  1.00000000e+00  1.00000000e+00  1.00000000e+00  1.00000000e+00
  3.34945995e-02  2.34726947e-01  8.13757318e-01  1.00000000e+00  3.34945995e-02
  2.34726947e-01  8.13757318e-01  1.00000000e+00  3.34945995e-02  2.34726947e-01
  8.13757318e-01  1.00000000e+00  3.34945995e-02  2.34726947e-01  8.13757318e-01
  1.00000000e+00  1.83109981e-03  1.39500985e-02  6.84450927e-02  2.32714275e-01
  4.70192950e-01  3.58520862e-01 -1.10777504e-01 -1.48026305e-01  1.13076704e+00
  7.08742995e-02  3.39752798e-01  7.27158595e-01  1.00000000e+00  1.00000000e+00
  1.00000000e+00  1.00000000e+00  1.00000000e+00  3.34945995e-02  2.34726947e-01
  8.13757318e-01  1.00000000e+00  1.83470016e-03  1.40373012e-02  6.88426061e-02
  2.32184421e-01  4.67941342e-01  3.62312032e-01 -1.19332409e-01 -1.60854212e-01
  1.14345648e+00  6.89990956e-02  3.16423980e-01  7.44308252e-01  1.00000000e+00
  1.00000000e+00  1.00000000e+00  1.00000000e+00  1.00000000e+00  3.34945995e-02
  2.34726947e-01  8.13757318e-01  1.00000000e+00  3.34945995e-02  2.34726947e-01
  8.13757318e-01  1.00000000e+00  3.34945995e-02  2.34726947e-01  8.13757318e-01
  1.00000000e+00  3.34945995e-02  2.34726947e-01  8.13757318e-01  1.00000000e+00
  3.34945995e-02  2.34726947e-01  8.13757318e-01  1.00000000e+00
Coordinates of each shell                  R   N=         378
  6.24264304e-01  1.00520819e-01 -1.48235469e+00  6.24264304e-01  1.00520819e-01
 -1.48235469e+00  6.24264304e-01  1.00520819e-01 -1.48235469e+00  6.24264304e-01
  1.00520819e-01 -1.48235469e+00  6.24264304e-01  1.00520819e-01 -1.48235469e+00
  6.24264304e-01  1.00520819e-01 -1.48235469e+00  6.24264304e-01  1.00520819e-01
 -1.48235469e+00  6.24264304e-01  1.00520819e-01 -1.48235469e+00 -1.66278431e+00
  7.04951234e-01  1.46939331e-01 -1.66278431e+00  7.04951234e-01  1.46939331e-01
 -1.66278431e+00  7.04951234e-01  1.46939331e-01 -1.66278431e+00  7.04951234e-01
  1.46939331e-01 -1.66278431e+00  7.04951234e-01  1.46939331e-01 -1.66278431e+00
  7.04951234e-01  1.46939331e-01 -1.66278431e+00  7.04951234e-01  1.46939331e-01
 -1.66278431e+00  7.04951234e-01  1.46939331e-01 -1.64521774e+00 -6.09318029e-01
  2.76252472e+00 -1.64521774e+00 -6.09318029e-01  2.76252472e+00 -1.64521774e+00
 -6.09318029e-01  2.76252472e+00 -1.64521774e+00 -6.09318029e-01  2.76252472e+00
 -1.64521774e+00 -6.09318029e-01  2.76252472e+00 -1.64521774e+00 -6.09318029e-01
  2.76252472e+00 -1.64521774e+00 -6.09318029e-01  2.76252472e+00 -1.64521774e+00
 -6.09318029e-01  2.76252472e+00 -4.01558966e+00 -1.05573036e-01  4.11586038e+00
 -4.01558966e+00 -1.05573036e-01  4.11586038e+00 -4.01558966e+00 -1.05573036e-01
  4.11586038e+00 -4.01558966e+00 -1.05573036e-01  4.11586038e+00 -4.01558966e+00
 -1.05573036e-01  4.11586038e+00 -4.01558966e+00 -1.05573036e-01  4.11586038e+00
 -4.01558966e+00 -1.05573036e-01  4.11586038e+00 -4.01558966e+00 -1.05573036e-01
  4.11586038e+00  3.01989064e+00  1.05970640e+00 -8.62963656e-01  3.01989064e+00
  1.05970640e+00 -8.62963656e-01  3.01989064e+00  1.05970640e+00 -8.62963656e-01
  3.01989064e+00  1.05970640e+00 -8.62963656e-01  3.01989064e+00  1.05970640e+00
 -8.62963656e-01  3.01989064e+00  1.05970640e+00 -8.62963656e-01  3.01989064e+00
  1.05970640e+00 -8.62963656e-01  3.01989064e+00  1.05970640e+00 -8.62963656e-01
  5.12212908e+00  4.93617716e-01 -2.35394251e+00  5.12212908e+00  4.93617716e-01
 -2.35394251e+00  5.12212908e+00  4.93617716e-01 -2.35394251e+00  5.12212908e+00
  4.93617716e-01 -2.35394251e+00  5.12212908e+00  4.93617716e-01 -2.35394251e+00
  5.12212908e+00  4.93617716e-01 -2.35394251e+00  5.12212908e+00  4.93617716e-01
 -2.35394251e+00  5.12212908e+00  4.93617716e-01 -2.35394251e+00  4.86177022e+00
 -1.03244872e+00 -4.49755183e+00  4.86177022e+00 -1.03244872e+00 -4.49755183e+00
  4.86177022e+00 -1.03244872e+00 -4.49755183e+00  4.86177022e+00 -1.03244872e+00
 -4.49755183e+00  4.86177022e+00 -1.03244872e+00 -4.49755183e+00  4.86177022e+00
 -1.03244872e+00 -4.49755183e+00  4.86177022e+00 -1.03244872e+00 -4.49755183e+00
  4.86177022e+00 -1.03244872e+00 -4.49755183e+00  2.48389464e+00 -1.98102878e+00
 -5.14212774e+00  2.48389464e+00 -1.98102878e+00 -5.14212774e+00  2.48389464e+00
 -1.98102878e+00 -5.14212774e+00  2.48389464e+00 -1.98102878e+00 -5.14212774e+00
  2.48389464e+00 -1.98102878e+00 -5.14212774e+00  2.48389464e+00 -1.98102878e+00
 -5.14212774e+00  2.48389464e+00 -1.98102878e+00 -5.14212774e+00  2.48389464e+00
 -1.98102878e+00 -5.14212774e+00  3.83092853e-01 -1.41121886e+00 -3.64352400e+00
  3.83092853e-01 -1.41121886e+00 -3.64352400e+00  3.83092853e-01 -1.41121886e+00
 -3.64352400e+00  3.83092853e-01 -1.41121886e+00 -3.64352400e+00  3.83092853e-01
 -1.41121886e+00 -3.64352400e+00  3.83092853e-01 -1.41121886e+00 -3.64352400e+00
  3.83092853e-01 -1.41121886e+00 -3.64352400e+00  3.83092853e-01 -1.41121886e+00
 -3.64352400e+00  3.22271516e+00  2.27209198e+00  7.82222527e-01  3.22271516e+00
  2.27209198e+00  7.82222527e-01 -1.46568087e+00 -2.15072222e+00 -4.15891397e+00
 -1.46568087e+00 -2.15072222e+00 -4.15891397e+00  6.96500910e+00  1.24846188e+00
 -1.84770262e+00  6.96500910e+00  1.24846188e+00 -1.84770262e+00  6.49811980e+00
 -1.46713949e+00 -5.66103796e+00  6.49811980e+00 -1.46713949e+00 -5.66103796e+00
  2.25898578e+00 -3.15373221e+00 -6.81418711e+00  2.25898578e+00 -3.15373221e+00
 -6.81418711e+00 -4.07370579e+00  2.16911385e+00  5.69278688e+00 -4.07370579e+00
  2.16911385e+00  5.69278688e+00 -4.07370579e+00  2.16911385e+00  5.69278688e+00
 -4.07370579e+00  2.16911385e+00  5.69278688e+00 -4.07370579e+00  2.16911385e+00
  5.69278688e+00 -4.07370579e+00  2.16911385e+00  5.69278688e+00 -4.07370579e+00
  2.16911385e+00  5.69278688e+00 -4.07370579e+00  2.16911385e+00  5.69278688e+00
 -4.43736329e+00 -1.62888811e+00  5.20821197e+00 -4.43736329e+00 -1.62888811e+00
  5.20821197e+00 -3.98487100e+00  3.84845730e+00  4.50122977e+00 -3.98487100e+00
  3.84845730e+00  4.50122977e+00 -2.49964652e+00  2.26241623e+00  7.06593939e+00
 -2.49964652e+00  2.26241623e+00  7.06593939e+00 -5.85748662e+00  2.20015830e+00
  6.74362120e+00 -5.85748662e+00  2.20015830e+00  6.74362120e+00 -1.81883411e+00
  3.37715361e+00  6.14179625e-01 -1.81883411e+00  3.37715361e+00  6.14179625e-01
 -1.81883411e+00  3.37715361e+00  6.14179625e-01 -1.81883411e+00  3.37715361e+00
  6.14179625e-01 -1.81883411e+00  3.37715361e+00  6.14179625e-01 -1.81883411e+00
  3.37715361e+00  6.14179625e-01 -1.81883411e+00  3.37715361e+00  6.14179625e-01
 -1.81883411e+00  3.37715361e+00  6.14179625e-01 -3.38614117e+00  7.21303097e-02
 -8.27896104e-01 -3.38614117e+00  7.21303097e-02 -8.27896104e-01 -1.31304408e+00
 -3.47540829e+00  2.48968913e+00 -1.31304408e+00 -3.47540829e+00  2.48968913e+00
 -1.31304408e+00 -3.47540829e+00  2.48968913e+00 -1.31304408e+00 -3.47540829e+00
  2.48968913e+00 -1.31304408e+00 -3.47540829e+00  2.48968913e+00 -1.31304408e+00
 -3.47540829e+00  2.48968913e+00 -1.31304408e+00 -3.47540829e+00  2.48968913e+00
 -1.31304408e+00 -3.47540829e+00  2.48968913e+00 -9.85799451e-03  1.53589528e-01
  3.81852423e+00 -9.85799451e-03  1.53589528e-01  3.81852423e+00 -2.90586785e+00
 -4.30225851e+00  1.44964720e+00 -2.90586785e+00 -4.30225851e+00  1.44964720e+00
 -1.23659475e+00 -4.36632169e+00  4.36011545e+00 -1.23659475e+00 -4.36632169e+00
  4.36011545e+00  4.30918776e-01 -3.95461133e+00  1.49216459e+00  4.30918776e-01
 -3.95461133e+00  1.49216459e+00 -1.80872661e+00  4.24254721e+00 -1.00232762e+00
 -1.80872661e+00  4.24254721e+00 -1.00232762e+00
Total Energy                               R     -5.200744867930770e+02
Alpha Orbital Energies                     R   N=         258
 -1.91575611e+01 -1.43198727e+01 -1.02419675e+01 -1.02192971e+01 -1.02029199e+01
 -1.02015115e+01 -1.02009840e+01 -1.02004623e+01 -1.02002898e+01 -1.01976838e+01
 -1.01912650e+01 -1.01823536e+01 -1.02664823e+00 -8.99752142e-01 -8.62710137e-01
 -7.83399451e-01 -7.53064185e-01 -7.46099127e-01 -6.81510629e-01 -6.52475459e-01
 -6.16810645e-01 -6.07747874e-01 -5.69619142e-01 -5.28636752e-01 -5.09676131e-01
 -4.86669709e-01 -4.61832336e-01 -4.56575762e-01 -4.52937299e-01 -4.44858699e-01
 -4.27965712e-01 -4.16952174e-01 -4.05571990e-01 -3.89273848e-01 -3.78184253e-01
 -3.68232625e-01 -3.64666860e-01 -3.59266615e-01 -3.50761738e-01 -3.46671045e-01
 -3.20421560e-01 -2.86446461e-01 -2.60927536e-01 -2.52850249e-01 -2.20590126e-01
 -2.18695890e-02 -1.80950515e-02  1.43804054e-03  1.15636245e-02  1.42342356e-02
  1.84544664e-02  3.07620607e-02  3.47965165e-02  4.04946409e-02  4.75514067e-02
  5.62317087e-02  6.03416743e-02  6.29133772e-02  7.44934352e-02  7.71719075e-02
  8.64462959e-02  8.87448980e-02  9.57068349e-02  1.00466758e-01  1.02730991e-01
  1.15487202e-01  1.17254235e-01  1.24061340e-01  1.30206283e-01  1.32437078e-01
  1.35888776e-01  1.45905467e-01  1.48749734e-01  1.59734206e-01  1.64003605e-01
  1.68237713e-01  1.73344839e-01  1.76029860e-01  1.78937420e-01  1.83354062e-01
  1.94949582e-01  1.97027618e-01  1.99391322e-01  2.02758716e-01  2.11177151e-01
  2.17438036e-01  2.20312546e-01  2.29487879e-01  2.33220653e-01  2.35283840e-01
  2.37638752e-01  2.39271799e-01  2.48813627e-01  2.51113973e-01  2.55620091e-01
  2.58027563e-01  2.62516441e-01  2.69402313e-01  2.70093043e-01  2.81384764e-01
  2.84467651e-01  2.91900887e-01  3.01676043e-01  3.04642590e-01  3.11809082e-01
  3.16398780e-01  3.33985672e-01  3.42494865e-01  3.46402837e-01  3.52657464e-01
  3.54128214e-01  3.60136540e-01  3.69803673e-01  3.82222662e-01  3.95218431e-01
  3.97569566e-01  4.05650604e-01  4.09449739e-01  4.32014964e-01  4.56613356e-01
  4.74744280e-01  5.72646616e-01  6.04804704e-01  6.30757412e-01  6.59963859e-01
  6.79859955e-01  6.85811712e-01  6.89482135e-01  6.91239595e-01  6.99253323e-01
  7.11553969e-01  7.25673698e-01  7.37677583e-01  7.41152984e-01  7.47109026e-01
  7.52285968e-01  7.55883707e-01  7.83746129e-01  7.99849802e-01  8.05324491e-01
  8.09178403e-01  8.23951471e-01  8.34619547e-01  8.55516424e-01  8.65003905e-01
  8.98243133e-01  9.17221942e-01  9.34061544e-01  9.38789553e-01  9.53888766e-01
  9.59923650e-01  9.77624673e-01  9.82946273e-01  1.00126219e+00  1.01388387e+00
  1.01968350e+00  1.03404199e+00  1.04981407e+00  1.05712673e+00  1.06687624e+00
  1.08993192e+00  1.10082953e+00  1.10650839e+00  1.12191087e+00  1.14063368e+00
  1.14868756e+00  1.15532709e+00  1.16583841e+00  1.17516807e+00  1.19901359e+00
  1.20309441e+00  1.23345994e+00  1.25975334e+00  1.27481291e+00  1.28507393e+00
  1.30564060e+00  1.34710329e+00  1.36514251e+00  1.40297294e+00  1.42751243e+00
  1.43628946e+00  1.45481455e+00  1.46140623e+00  1.47706281e+00  1.48566581e+00
  1.50441088e+00  1.50605901e+00  1.54360703e+00  1.56144181e+00  1.62848814e+00
  1.67319231e+00  1.69215705e+00  1.70930668e+00  1.73950359e+00  1.75704913e+00
  1.81469855e+00  1.82927787e+00  1.84269925e+00  1.88715066e+00  1.90602969e+00
  1.91082392e+00  1.92878877e+00  1.95514407e+00  1.96503798e+00  1.98455354e+00
  2.00147737e+00  2.02047910e+00  2.05465212e+00  2.06582638e+00  2.08138926e+00
  2.10700230e+00  2.11232057e+00  2.13605815e+00  2.14651316e+00  2.16045601e+00
  2.17882915e+00  2.21667826e+00  2.22726145e+00  2.24431229e+00  2.28117213e+00
  2.29777085e+00  2.30246372e+00  2.30899667e+00  2.33957562e+00  2.36696956e+00
  2.38319922e+00  2.40374455e+00  2.49568254e+00  2.54053604e+00  2.54924731e+00
  2.56408871e+00  2.59050957e+00  2.62695939e+00  2.63808034e+00  2.64582457e+00
  2.73852882e+00  2.74892472e+00  2.76526308e+00  2.77685630e+00  2.80929116e+00
  2.82760182e+00  2.89101628e+00  2.96028330e+00  3.03772757e+00  3.09277895e+00
  3.39680754e+00  4.11411927e+00  4.22823039e+00  4.24449364e+00  4.26476022e+00
  4.32258495e+00  4.34212757e+00  4.35601395e+00  4.40253813e+00  4.44824531e+00
  4.52662747e+00  4.68368556e+00  4.72910691e+00
Alpha MO coefficients                      R   N=       66564
 -1.12379436e-05 -1.09160546e-04  9.32579071e-06  6.61174116e-06 -1.54888670e-05
  2.51268912e-04 -2.64904320e-04 -4.39718085e-05 -2.22185662e-05 -5.74891912e-06
  4.94824481e-05 -1.86698912e-05 -3.22860894e-05 -1.27621660e-05  2.95630435e-05
  2.24963361e-02 -1.69303978e-02 -1.27822290e-02 -1.23497266e-02  4.45851578e-05
  1.05804696e-04 -2.23453768e-06 -2.79852931e-04 -8.25410176e-05 -1.63618400e-04
  9.87986365e-05 -2.10387576e-04  3.46512327e-04  5.93311345e-05 -4.55883849e-04
  5.80299744e-05  2.93212962e-05  1.74866615e-05 -7.11834868e-05 -4.79149722e-02
 -6.91328220e-03  9.91379922e-04 -5.62289648e-03 -1.01238710e-05 -9.85843479e-05
  9.58275885e-07 -4.50231496e-05  4.37267521e-05 -2.17000945e-04  9.43049589e-05
  2.84526750e-05 -9.86984542e-05 -1.99411526e-05  5.33513069e-05 -2.41803847e-05
 -1.24801222e-05  1.69032944e-05 -3.92259568e-05  3.07925640e-02  1.99262031e-03
 -2.40771733e-03 -6.42506128e-03 -1.06331882e-05 -1.21544547e-05 -7.94430455e-06
 -7.71055503e-06  9.62993157e-06  2.56819159e-04  5.10009415e-05 -1.73792657e-04
  7.88985976e-05 -1.18196753e-05 -4.95127234e-05 -4.39566969e-05 -1.62230002e-05
  4.36774259e-06  3.43294559e-05  2.62615158e-04  2.84345290e-04  8.55085361e-06
  1.04420189e-04 -1.60096772e-05 -3.40031313e-05  1.57141216e-05  3.28165069e-07
 -2.13968778e-05  4.03311326e-04 -2.27562869e-04 -7.82998660e-05  1.45680307e-04
 -4.91899357e-05 -3.59382640e-05 -3.08872449e-05  3.14485074e-05  2.60270993e-05
 -7.36935515e-07  1.24258268e-02 -1.84364005e-02  4.88257871e-04  5.28967553e-03
 -2.81985407e-06 -1.78918156e-05 -3.03772703e-06 -3.58523175e-06  3.50461818e-06
  1.51047333e-04 -9.36946110e-05  6.40322981e-05  5.23630255e-05  1.30043417e-05
 -6.18653350e-06 -1.24662522e-06 -9.69046210e-06 -1.00979921e-05  3.17112209e-06