Generated by Psi4
     FORCE                           RHF                       TESTBAS
Number of atoms                            I               27
Charge                                     I                0
Multiplicity                               I                1
Number of electrons                        I               90
Number of alpha electrons                  I               45
Number of beta electrons                   I               45
Number of basis functions                  I              258
Number of independent functions            I              258
Atomic numbers                             I   N=          27
           6           6           7           6           6           6
           6           6           1           1           1           1
           1           6           6           1           8           1
           1           1           1           1           6           1
           1           1           1
Nuclear charges                            R   N=          27
  6.00000000e+00  6.00000000e+00  7.00000000e+00  6.00000000e+00  6.00000000e+00
  6.00000000e+00  6.00000000e+00  6.00000000e+00  1.00000000e+00  1.00000000e+00
  1.00000000e+00  1.00000000e+00  1.00000000e+00  6.00000000e+00  6.00000000e+00
  1.00000000e+00  8.00000000e+00  1.00000000e+00  1.00000000e+00  1.00000000e+00
  1.00000000e+00  1.00000000e+00  6.00000000e+00  1.00000000e+00  1.00000000e+00
  1.00000000e+00  1.00000000e+00
Current cartesian coordinates              R   N=          81
  7.71153822e-01 -2.48371662e-01 -1.56424360e+00 -1.74125576e+00 -1.92436458e-01
  2.57840389e+00 -4.39575611e+00 -1.83428094e-01  3.43698747e+00  1.63474614e+00
  2.20824867e+00 -2.05784444e+00  4.00657804e+00  2.60420853e+00 -3.14417846e+00
  5.55182025e+00  5.48543091e-01 -3.75742733e+00  4.69945244e+00 -1.90579956e+00
 -3.29029235e+00  2.31998701e+00 -2.29513697e+00 -2.20906905e+00  4.15114097e-01
  3.80184319e+00 -1.62680533e+00  1.65616028e+00 -4.21327295e+00 -1.87748649e+00
  4.64569122e+00  4.51961996e+00 -3.52574266e+00  7.39555699e+00  8.58404699e-01
 -4.60922621e+00  5.87360163e+00 -3.51833020e+00 -3.78338064e+00 -1.77651579e+00
 -6.70146633e-01 -3.25115710e-01 -4.87368234e-02 -2.05302720e+00  4.01827490e+00
 -1.03705113e+00  1.73907118e+00  2.86149386e+00 -3.59339669e+00  9.58804891e-01
 -1.44914185e+00 -2.33352321e+00 -2.66009508e+00 -6.29377304e-01 -6.60237521e-01
 -4.01061479e+00  3.69321514e+00 -1.22725055e-01 -1.69249894e+00  6.05639065e+00
  1.92598942e+00 -1.89915461e+00  3.41994965e+00 -4.94259078e+00  1.07160899e+00
 -1.84260772e-01 -4.88295636e+00  1.20788321e+00  5.77793329e+00 -5.01837549e+00
 -1.99883792e+00  3.61677775e+00 -4.45130364e+00  3.21046219e+00  5.47918828e+00
 -3.77797596e+00  5.44976319e-01  7.41664963e+00 -6.89212637e+00  1.05675487e+00
  6.24932402e+00
Integer atomic weights                     I   N=          27
          12          12          14          12          12          12
          12          12           1           1           1           1
           1          12          12           1          15           1
           1           1           1           1          12           1
           1           1           1
Real atomic weights                        R   N=          27
  1.20000000e+01  1.20000000e+01  1.40030740e+01  1.20000000e+01  1.20000000e+01
  1.20000000e+01  1.20000000e+01  1.20000000e+01  1.00782503e+00  1.00782503e+00
  1.00782503e+00  1.00782503e+00  1.00782503e+00  1.20000000e+01  1.20000000e+01
  1.00782503e+00  1.59949146e+01  1.00782503e+00  1.00782503e+00  1.00782503e+00
  1.00782503e+00  1.00782503e+00  1.20000000e+01  1.00782503e+00  1.00782503e+00
  1.00782503e+00  1.00782503e+00
Number of primitive shells                 I              264
Number of contracted shells                I              126
Pure/Cartesian d shells                    I                1
Pure/Cartesian f shells                    I                1
Highest angular momentum                   I                2
Largest degree of contraction              I                6
Shell types                                I   N=         126
           0           0           1           0           1           2
           0           1           0           0           1           0
           1           2           0           1           0           0
           1           0           1           2           0           1
           0           0           1           0           1           2
           0           1           0           0           1           0
           1           2           0           1           0           0
           1           0           1           2           0           1
           0           0           1           0           1           2
           0           1           0           0           1           0
           1           2           0           1           0           0
           0           0           0           0           0           0
           0           0           0           0           1           0
           1           2           0           1           0           0
           1           0           1           2           0           1
           0           0           0           0           1           0
           1           2           0           1           0           0
           0           0           0           0           0           0
           0           0           0           0           1           0
           1           2           0           1           0           0
           0           0           0           0           0           0
Number of primitives per shell             I   N=         126
           6           3           3           1           1           1
           1           1           6           3           3           1
           1           1           1           1           6           3
           3           1           1           1           1           1
           6           3           3           1           1           1
           1           1           6           3           3           1
           1           1           1           1           6           3
           3           1           1           1           1           1
           6           3           3           1           1           1
           1           1           6           3           3           1
           1           1           1           1           3           1
           3           1           3           1           3           1
           3           1           6           3           3           1
           1           1           1           1           6           3
           3           1           1           1           1           1
           3           1           6           3           3           1
           1           1           1           1           3           1
           3           1           3           1           3           1
           3           1           6           3           3           1
           1           1           1           1           3           1
           3           1           3           1           3           1
Shell to atom map                          I   N=         126
           1           1           1           1           1           1
           1           1           2           2           2           2
           2           2           2           2           3           3
           3           3           3           3           3           3
           4           4           4           4           4           4
           4           4           5           5           5           5
           5           5           5           5           6           6
           6           6           6           6           6           6
           7           7           7           7           7           7
           7           7           8           8           8           8
           8           8           8           8           9           9
          10          10          11          11          12          12
          13          13          14          14          14          14
          14          14          14          14          15          15
          15          15          15          15          15          15
          16          16          17          17          17          17
          17          17          17          17          18          18
          19          19          20          20          21          21
          22          22          23          23          23          23
          23          23          23          23          24          24
          25          25          26          26          27          27
Primitive exponents                        R   N=         264
  3.04752490e+03  4.57369510e+02  1.03948690e+02  2.92101550e+01  9.28666300e+00
  3.16392700e+00  7.86827240e+00  1.88128850e+00  5.44249300e-01  7.86827240e+00
  1.88128850e+00  5.44249300e-01  1.68714400e-01  1.68714400e-01  8.00000000e-01
  4.38000000e-02  4.38000000e-02  3.04752490e+03  4.57369510e+02  1.03948690e+02
  2.92101550e+01  9.28666300e+00  3.16392700e+00  7.86827240e+00  1.88128850e+00
  5.44249300e-01  7.86827240e+00  1.88128850e+00  5.44249300e-01  1.68714400e-01
  1.68714400e-01  8.00000000e-01  4.38000000e-02  4.38000000e-02  4.17351100e+03
  6.27457900e+02  1.42902100e+02  4.02343300e+01  1.28202100e+01  4.39043700e+00
  1.16263580e+01  2.71628000e+00  7.72218000e-01  1.16263580e+01  2.71628000e+00
  7.72218000e-01  2.12031300e-01  2.12031300e-01  8.00000000e-01  6.39000000e-02
  6.39000000e-02  3.04752490e+03  4.57369510e+02  1.03948690e+02  2.92101550e+01
  9.28666300e+00  3.16392700e+00  7.86827240e+00  1.88128850e+00  5.44249300e-01
  7.86827240e+00  1.88128850e+00  5.44249300e-01  1.68714400e-01  1.68714400e-01
  8.00000000e-01  4.38000000e-02  4.38000000e-02  3.04752490e+03  4.57369510e+02
  1.03948690e+02  2.92101550e+01  9.28666300e+00  3.16392700e+00  7.86827240e+00
  1.88128850e+00  5.44249300e-01  7.86827240e+00  1.88128850e+00  5.44249300e-01
  1.68714400e-01  1.68714400e-01  8.00000000e-01  4.38000000e-02  4.38000000e-02
  3.04752490e+03  4.57369510e+02  1.03948690e+02  2.92101550e+01  9.28666300e+00
  3.16392700e+00  7.86827240e+00  1.88128850e+00  5.44249300e-01  7.86827240e+00
  1.88128850e+00  5.44249300e-01  1.68714400e-01  1.68714400e-01  8.00000000e-01
  4.38000000e-02  4.38000000e-02  3.04752490e+03  4.57369510e+02  1.03948690e+02
  2.92101550e+01  9.28666300e+00  3.16392700e+00  7.86827240e+00  1.88128850e+00
  5.44249300e-01  7.86827240e+00  1.88128850e+00  5.44249300e-01  1.68714400e-01
  1.68714400e-01  8.00000000e-01  4.38000000e-02  4.38000000e-02  3.04752490e+03
  4.57369510e+02  1.03948690e+02  2.92101550e+01  9.28666300e+00  3.16392700e+00
  7.86827240e+00  1.88128850e+00  5.44249300e-01  7.86827240e+00  1.88128850e+00
  5.44249300e-01  1.68714400e-01  1.68714400e-01  8.00000000e-01  4.38000000e-02
  4.38000000e-02  1.87311370e+01  2.82539370e+00  6.40121700e-01  1.61277800e-01
  1.87311370e+01  2.82539370e+00  6.40121700e-01  1.61277800e-01  1.87311370e+01
  2.82539370e+00  6.40121700e-01  1.61277800e-01  1.87311370e+01  2.82539370e+00
  6.40121700e-01  1.61277800e-01  1.87311370e+01  2.82539370e+00  6.40121700e-01
  1.61277800e-01  3.04752490e+03  4.57369510e+02  1.03948690e+02  2.92101550e+01
  9.28666300e+00  3.16392700e+00  7.86827240e+00  1.88128850e+00  5.44249300e-01
  7.86827240e+00  1.88128850e+00  5.44249300e-01  1.68714400e-01  1.68714400e-01
  8.00000000e-01  4.38000000e-02  4.38000000e-02  3.04752490e+03  4.57369510e+02
  1.03948690e+02  2.92101550e+01  9.28666300e+00  3.16392700e+00  7.86827240e+00
  1.88128850e+00  5.44249300e-01  7.86827240e+00  1.88128850e+00  5.44249300e-01
  1.68714400e-01  1.68714400e-01  8.00000000e-01  4.38000000e-02  4.38000000e-02
  1.87311370e+01  2.82539370e+00  6.40121700e-01  1.61277800e-01  5.48467170e+03
  8.25234950e+02  1.88046960e+02  5.29645000e+01  1.68975700e+01  5.79963530e+00
  1.55396160e+01  3.59993360e+00  1.01376180e+00  1.55396160e+01  3.59993360e+00
  1.01376180e+00  2.70005800e-01  2.70005800e-01  8.00000000e-01  8.45000000e-02
  8.45000000e-02  1.87311370e+01  2.82539370e+00  6.40121700e-01  1.61277800e-01
  1.87311370e+01  2.82539370e+00  6.40121700e-01  1.61277800e-01  1.87311370e+01
  2.82539370e+00  6.40121700e-01  1.61277800e-01  1.87311370e+01  2.82539370e+00
  6.40121700e-01  1.61277800e-01  1.87311370e+01  2.82539370e+00  6.40121700e-01
  1.61277800e-01  3.04752490e+03  4.57369510e+02  1.03948690e+02  2.92101550e+01
  9.28666300e+00  3.16392700e+00  7.86827240e+00  1.88128850e+00  5.44249300e-01
  7.86827240e+00  1.88128850e+00  5.44249300e-01  1.68714400e-01  1.68714400e-01
  8.00000000e-01  4.38000000e-02  4.38000000e-02  1.87311370e+01  2.82539370e+00
  6.40121700e-01  1.61277800e-01  1.87311370e+01  2.82539370e+00  6.40121700e-01
  1.61277800e-01  1.87311370e+01  2.82539370e+00  6.40121700e-01  1.61277800e-01
  1.87311370e+01  2.82539370e+00  6.40121700e-01  1.61277800e-01
Contraction coefficients                   R   N=         264
  1.83470016e-03  1.40373012e-02  6.88426061e-02  2.32184421e-01  4.67941342e-01
  3.62312032e-01 -1.19332409e-01 -1.60854212e-01  1.14345648e+00  6.89990956e-02
  3.16423980e-01  7.44308252e-01  1.00000000e+00  1.00000000e+00  1.00000000e+00
  1.00000000e+00  1.00000000e+00  1.83470016e-03  1.40373012e-02  6.88426061e-02
  2.32184421e-01  4.67941342e-01  3.62312032e-01 -1.19332409e-01 -1.60854212e-01
  1.14345648e+00  6.89990956e-02  3.16423980e-01  7.44308252e-01  1.00000000e+00
  1.00000000e+00  1.00000000e+00  1.00000000e+00  1.00000000e+00  1.83479944e-03
  1.39949958e-02  6.85869792e-02  2.32240930e-01  4.69069858e-01  3.60454891e-01
 -1.14961023e-01 -1.69118034e-01  1.14585223e+00  6.75800232e-02  3.23907111e-01
  7.40895255e-01  1.00000000e+00  1.00000000e+00  1.00000000e+00  1.00000000e+00
  1.00000000e+00  1.83470016e-03  1.40373012e-02  6.88426061e-02  2.32184421e-01
  4.67941342e-01  3.62312032e-01 -1.19332409e-01 -1.60854212e-01  1.14345648e+00
  6.89990956e-02  3.16423980e-01  7.44308252e-01  1.00000000e+00  1.00000000e+00
  1.00000000e+00  1.00000000e+00  1.00000000e+00  1.83470016e-03  1.40373012e-02
  6.88426061e-02  2.32184421e-01  4.67941342e-01  3.62312032e-01 -1.19332409e-01
 -1.60854212e-01  1.14345648e+00  6.89990956e-02  3.16423980e-01  7.44308252e-01
  1.00000000e+00  1.00000000e+00  1.00000000e+00  1.00000000e+00  1.00000000e+00
  1.83470016e-03  1.40373012e-02  6.88426061e-02  2.32184421e-01  4.67941342e-01
  3.62312032e-01 -1.19332409e-01 -1.60854212e-01  1.14345648e+00  6.89990956e-02
  3.16423980e-01  7.44308252e-01  1.00000000e+00  1.00000000e+00  1.00000000e+00
  1.00000000e+00  1.00000000e+00  1.83470016e-03  1.40373012e-02  6.88426061e-02
  2.32184421e-01  4.67941342e-01  3.62312032e-01 -1.19332409e-01 -1.60854212e-01
  1.14345648e+00  6.89990956e-02  3.16423980e-01  7.44308252e-01  1.00000000e+00
  1.00000000e+00  1.00000000e+00  1.00000000e+00  1.00000000e+00  1.83470016e-03
  1.40373012e-02  6.88426061e-02  2.32184421e-01  4.67941342e-01  3.62312032e-01
 -1.19332409e-01 -1.60854212e-01  1.14345648e+00  6.89990956e-02  3.16423980e-01
  7.44308252e-01  1.00000000e+00  1.00000000e+00  1.00000000e+00  1.00000000e+00
  1.00000000e+00  3.34945995e-02  2.34726947e-01  8.13757318e-01  1.00000000e+00
  3.34945995e-02  2.34726947e-01  8.13757318e-01  1.00000000e+00  3.34945995e-02
  2.34726947e-01  8.13757318e-01  1.00000000e+00  3.34945995e-02  2.34726947e-01
  8.13757318e-01  1.00000000e+00  3.34945995e-02  2.34726947e-01  8.13757318e-01
  1.00000000e+00  1.83470016e-03  1.40373012e-02  6.88426061e-02  2.32184421e-01
  4.67941342e-01  3.62312032e-01 -1.19332409e-01 -1.60854212e-01  1.14345648e+00
  6.89990956e-02  3.16423980e-01  7.44308252e-01  1.00000000e+00  1.00000000e+00
  1.00000000e+00  1.00000000e+00  1.00000000e+00  1.83470016e-03  1.40373012e-02
  6.88426061e-02  2.32184421e-01  4.67941342e-01  3.62312032e-01 -1.19332409e-01
 -1.60854212e-01  1.14345648e+00  6.89990956e-02  3.16423980e-01  7.44308252e-01
  1.00000000e+00  1.00000000e+00  1.00000000e+00  1.00000000e+00  1.00000000e+00
  3.34945995e-02  2.34726947e-01  8.13757318e-01  1.00000000e+00  1.83109981e-03
  1.39500985e-02  6.84450927e-02  2.32714275e-01  4.70192950e-01  3.58520862e-01
 -1.10777504e-01 -1.48026305e-01  1.13076704e+00  7.08742995e-02  3.39752798e-01
  7.27158595e-01  1.00000000e+00  1.00000000e+00  1.00000000e+00  1.00000000e+00
  1.00000000e+00  3.34945995e-02  2.34726947e-01  8.13757318e-01  1.00000000e+00
  3.34945995e-02  2.34726947e-01  8.13757318e-01  1.00000000e+00  3.34945995e-02
  2.34726947e-01  8.13757318e-01  1.00000000e+00  3.34945995e-02  2.34726947e-01
  8.13757318e-01  1.00000000e+00  3.34945995e-02  2.34726947e-01  8.13757318e-01
  1.00000000e+00  1.83470016e-03  1.40373012e-02  6.88426061e-02  2.32184421e-01
  4.67941342e-01  3.62312032e-01 -1.19332409e-01 -1.60854212e-01  1.14345648e+00
  6.89990956e-02  3.16423980e-01  7.44308252e-01  1.00000000e+00  1.00000000e+00
  1.00000000e+00  1.00000000e+00  1.00000000e+00  3.34945995e-02  2.34726947e-01
  8.13757318e-01  1.00000000e+00  3.34945995e-02  2.34726947e-01  8.13757318e-01
  1.00000000e+00  3.34945995e-02  2.34726947e-01  8.13757318e-01  1.00000000e+00
  3.34945995e-02  2.34726947e-01  8.13757318e-01  1.00000000e+00
Coordinates of each shell                  R   N=         378
  7.71153822e-01 -2.48371662e-01 -1.56424360e+00  7.71153822e-01 -2.48371662e-01
 -1.56424360e+00  7.71153822e-01 -2.48371662e-01 -1.56424360e+00  7.71153822e-01
 -2.48371662e-01 -1.56424360e+00  7.71153822e-01 -2.48371662e-01 -1.56424360e+00
  7.71153822e-01 -2.48371662e-01 -1.56424360e+00  7.71153822e-01 -2.48371662e-01
 -1.56424360e+00  7.71153822e-01 -2.48371662e-01 -1.56424360e+00 -1.74125576e+00
 -1.92436458e-01  2.57840389e+00 -1.74125576e+00 -1.92436458e-01  2.57840389e+00
 -1.74125576e+00 -1.92436458e-01  2.57840389e+00 -1.74125576e+00 -1.92436458e-01
  2.57840389e+00 -1.74125576e+00 -1.92436458e-01  2.57840389e+00 -1.74125576e+00
 -1.92436458e-01  2.57840389e+00 -1.74125576e+00 -1.92436458e-01  2.57840389e+00
 -1.74125576e+00 -1.92436458e-01  2.57840389e+00 -4.39575611e+00 -1.83428094e-01
  3.43698747e+00 -4.39575611e+00 -1.83428094e-01  3.43698747e+00 -4.39575611e+00
 -1.83428094e-01  3.43698747e+00 -4.39575611e+00 -1.83428094e-01  3.43698747e+00
 -4.39575611e+00 -1.83428094e-01  3.43698747e+00 -4.39575611e+00 -1.83428094e-01
  3.43698747e+00 -4.39575611e+00 -1.83428094e-01  3.43698747e+00 -4.39575611e+00
 -1.83428094e-01  3.43698747e+00  1.63474614e+00  2.20824867e+00 -2.05784444e+00
  1.63474614e+00  2.20824867e+00 -2.05784444e+00  1.63474614e+00  2.20824867e+00
 -2.05784444e+00  1.63474614e+00  2.20824867e+00 -2.05784444e+00  1.63474614e+00
  2.20824867e+00 -2.05784444e+00  1.63474614e+00  2.20824867e+00 -2.05784444e+00
  1.63474614e+00  2.20824867e+00 -2.05784444e+00  1.63474614e+00  2.20824867e+00
 -2.05784444e+00  4.00657804e+00  2.60420853e+00 -3.14417846e+00  4.00657804e+00
  2.60420853e+00 -3.14417846e+00  4.00657804e+00  2.60420853e+00 -3.14417846e+00
  4.00657804e+00  2.60420853e+00 -3.14417846e+00  4.00657804e+00  2.60420853e+00
 -3.14417846e+00  4.00657804e+00  2.60420853e+00 -3.14417846e+00  4.00657804e+00
  2.60420853e+00 -3.14417846e+00  4.00657804e+00  2.60420853e+00 -3.14417846e+00
  5.55182025e+00  5.48543091e-01 -3.75742733e+00  5.55182025e+00  5.48543091e-01
 -3.75742733e+00  5.55182025e+00  5.48543091e-01 -3.75742733e+00  5.55182025e+00
  5.48543091e-01 -3.75742733e+00  5.55182025e+00  5.48543091e-01 -3.75742733e+00
  5.55182025e+00  5.48543091e-01 -3.75742733e+00  5.55182025e+00  5.48543091e-01
 -3.75742733e+00  5.55182025e+00  5.48543091e-01 -3.75742733e+00  4.69945244e+00
 -1.90579956e+00 -3.29029235e+00  4.69945244e+00 -1.90579956e+00 -3.29029235e+00
  4.69945244e+00 -1.90579956e+00 -3.29029235e+00  4.69945244e+00 -1.90579956e+00
 -3.29029235e+00  4.69945244e+00 -1.90579956e+00 -3.29029235e+00  4.69945244e+00
 -1.90579956e+00 -3.29029235e+00  4.69945244e+00 -1.90579956e+00 -3.29029235e+00
  4.69945244e+00 -1.90579956e+00 -3.29029235e+00  2.31998701e+00 -2.29513697e+00
 -2.20906905e+00  2.31998701e+00 -2.29513697e+00 -2.20906905e+00  2.31998701e+00
 -2.29513697e+00 -2.20906905e+00  2.31998701e+00 -2.29513697e+00 -2.20906905e+00
  2.31998701e+00 -2.29513697e+00 -2.20906905e+00  2.31998701e+00 -2.29513697e+00
 -2.20906905e+00  2.31998701e+00 -2.29513697e+00 -2.20906905e+00  2.31998701e+00
 -2.29513697e+00 -2.20906905e+00  4.15114097e-01  3.80184319e+00 -1.62680533e+00
  4.15114097e-01  3.80184319e+00 -1.62680533e+00  1.65616028e+00 -4.21327295e+00
 -1.87748649e+00  1.65616028e+00 -4.21327295e+00 -1.87748649e+00  4.64569122e+00
  4.51961996e+00 -3.52574266e+00  4.64569122e+00  4.51961996e+00 -3.52574266e+00
  7.39555699e+00  8.58404699e-01 -4.60922621e+00  7.39555699e+00  8.58404699e-01
 -4.60922621e+00  5.87360163e+00 -3.51833020e+00 -3.78338064e+00  5.87360163e+00
 -3.51833020e+00 -3.78338064e+00 -1.77651579e+00 -6.70146633e-01 -3.25115710e-01
 -1.77651579e+00 -6.70146633e-01 -3.25115710e-01 -1.77651579e+00 -6.70146633e-01
 -3.25115710e-01 -1.77651579e+00 -6.70146633e-01 -3.25115710e-01 -1.77651579e+00
 -6.70146633e-01 -3.25115710e-01 -1.77651579e+00 -6.70146633e-01 -3.25115710e-01
 -1.77651579e+00 -6.70146633e-01 -3.25115710e-01 -1.77651579e+00 -6.70146633e-01
 -3.25115710e-01 -4.87368234e-02 -2.05302720e+00  4.01827490e+00 -4.87368234e-02
 -2.05302720e+00  4.01827490e+00 -4.87368234e-02 -2.05302720e+00  4.01827490e+00
 -4.87368234e-02 -2.05302720e+00  4.01827490e+00 -4.87368234e-02 -2.05302720e+00
  4.01827490e+00 -4.87368234e-02 -2.05302720e+00  4.01827490e+00 -4.87368234e-02
 -2.05302720e+00  4.01827490e+00 -4.87368234e-02 -2.05302720e+00  4.01827490e+00
 -1.03705113e+00  1.73907118e+00  2.86149386e+00 -1.03705113e+00  1.73907118e+00
  2.86149386e+00 -3.59339669e+00  9.58804891e-01 -1.44914185e+00 -3.59339669e+00
  9.58804891e-01 -1.44914185e+00 -3.59339669e+00  9.58804891e-01 -1.44914185e+00
 -3.59339669e+00  9.58804891e-01 -1.44914185e+00 -3.59339669e+00  9.58804891e-01
 -1.44914185e+00 -3.59339669e+00  9.58804891e-01 -1.44914185e+00 -3.59339669e+00
  9.58804891e-01 -1.44914185e+00 -3.59339669e+00  9.58804891e-01 -1.44914185e+00
 -2.33352321e+00 -2.66009508e+00 -6.29377304e-01 -2.33352321e+00 -2.66009508e+00
 -6.29377304e-01 -6.60237521e-01 -4.01061479e+00  3.69321514e+00 -6.60237521e-01
 -4.01061479e+00  3.69321514e+00 -1.22725055e-01 -1.69249894e+00  6.05639065e+00
 -1.22725055e-01 -1.69249894e+00  6.05639065e+00  1.92598942e+00 -1.89915461e+00
  3.41994965e+00  1.92598942e+00 -1.89915461e+00  3.41994965e+00 -4.94259078e+00
  1.07160899e+00 -1.84260772e-01 -4.94259078e+00  1.07160899e+00 -1.84260772e-01
 -4.88295636e+00  1.20788321e+00  5.77793329e+00 -4.88295636e+00  1.20788321e+00
  5.77793329e+00 -4.88295636e+00  1.20788321e+00  5.77793329e+00 -4.88295636e+00
  1.20788321e+00  5.77793329e+00 -4.88295636e+00  1.20788321e+00  5.77793329e+00
 -4.88295636e+00  1.20788321e+00  5.77793329e+00 -4.88295636e+00  1.20788321e+00
  5.77793329e+00 -4.88295636e+00  1.20788321e+00  5.77793329e+00 -5.01837549e+00
 -1.99883792e+00  3.61677775e+00 -5.01837549e+00 -1.99883792e+00  3.61677775e+00
 -4.45130364e+00  3.21046219e+00  5.47918828e+00 -4.45130364e+00  3.21046219e+00
  5.47918828e+00 -3.77797596e+00  5.44976319e-01  7.41664963e+00 -3.77797596e+00
  5.44976319e-01  7.41664963e+00 -6.89212637e+00  1.05675487e+00  6.24932402e+00
 -6.89212637e+00  1.05675487e+00  6.24932402e+00
Total Energy                               R     -5.200811342386507e+02
Alpha Orbital Energies                     R   N=         258
 -1.91394900e+01 -1.43449642e+01 -1.02408708e+01 -1.02276442e+01 -1.02190214e+01
 -1.01976527e+01 -1.01948203e+01 -1.01938454e+01 -1.01936599e+01 -1.01932836e+01
 -1.01895476e+01 -1.01876897e+01 -1.01734381e+00 -9.18021627e-01 -8.56353820e-01
 -7.83032381e-01 -7.47535919e-01 -7.45916617e-01 -6.85616594e-01 -6.68402489e-01
 -6.15222143e-01 -6.05607119e-01 -5.77215148e-01 -5.21181093e-01 -5.07471410e-01
 -4.83193262e-01 -4.75330969e-01 -4.61159900e-01 -4.51073620e-01 -4.29198662e-01
 -4.22302504e-01 -4.20246988e-01 -4.15135256e-01 -4.06678053e-01 -4.02045102e-01
 -3.77710423e-01 -3.63707422e-01 -3.56684770e-01 -3.52524512e-01 -3.42723221e-01
 -3.20815411e-01 -2.72273966e-01 -2.55492242e-01 -2.52949167e-01 -2.37802171e-01
 -1.35856758e-02 -1.08506917e-02 -1.58521618e-03  1.01993872e-02  1.12254300e-02
  2.04599724e-02  3.09155227e-02  3.28545713e-02  4.11234705e-02  5.00044012e-02
  5.37708252e-02  5.64769346e-02  6.05182413e-02  7.38864968e-02  7.68613554e-02
  8.16843108e-02  8.64963938e-02  9.22202795e-02  1.01214904e-01  1.02451906e-01
  1.14759043e-01  1.17165664e-01  1.24595059e-01  1.26195549e-01  1.31206226e-01
  1.39170156e-01  1.49909739e-01  1.55342114e-01  1.55791604e-01  1.61415892e-01
  1.71568495e-01  1.72190429e-01  1.79189856e-01  1.79467235e-01  1.86908459e-01
  1.90750379e-01  1.92993657e-01  2.01538245e-01  2.02843907e-01  2.13990792e-01
  2.16086322e-01  2.21214073e-01  2.25324101e-01  2.29890258e-01  2.32417633e-01
  2.34932821e-01  2.40035883e-01  2.44175181e-01  2.53012754e-01  2.55093546e-01
  2.59226704e-01  2.65385108e-01  2.69472538e-01  2.73738023e-01  2.84286109e-01
  2.86869460e-01  2.89437182e-01  2.92369687e-01  2.98172199e-01  3.05339231e-01
  3.11743624e-01  3.18001288e-01  3.25687092e-01  3.33165435e-01  3.46890157e-01
  3.49228740e-01  3.61152916e-01  3.71100796e-01  3.79415188e-01  3.86545823e-01
  3.88572651e-01  4.03101051e-01  4.10420272e-01  4.40235908e-01  4.51933504e-01
  4.76742891e-01  5.76363752e-01  6.08645052e-01  6.39005784e-01  6.51533121e-01
  6.55762610e-01  6.70322181e-01  6.80960692e-01  6.93067631e-01  6.96141587e-01
  7.16158886e-01  7.26800283e-01  7.35115810e-01  7.44016913e-01  7.46974732e-01
  7.51826147e-01  7.70178754e-01  7.88802168e-01  7.94731818e-01  8.06926615e-01
  8.16298454e-01  8.26639191e-01  8.44559462e-01  8.51577778e-01  8.61723297e-01
  8.92299285e-01  9.05250578e-01  9.20329844e-01  9.37461825e-01  9.44936439e-01
  9.56578479e-01  9.79620387e-01  9.91234090e-01  9.99114207e-01  1.01030395e+00
  1.01512939e+00  1.02315276e+00  1.03057816e+00  1.05177349e+00  1.06938320e+00
  1.07956002e+00  1.08285591e+00  1.09570417e+00  1.10724200e+00  1.13405659e+00
  1.14002873e+00  1.15212105e+00  1.16298099e+00  1.16874267e+00  1.19006526e+00
  1.23127906e+00  1.23363897e+00  1.24708105e+00  1.27244401e+00  1.28666881e+00
  1.30510274e+00  1.33372752e+00  1.37527749e+00  1.40160657e+00  1.40725293e+00
  1.43069031e+00  1.45282342e+00  1.47126672e+00  1.48977090e+00  1.49061411e+00
  1.49952431e+00  1.50883771e+00  1.53530150e+00  1.55584325e+00  1.60766320e+00
  1.65057914e+00  1.68986391e+00  1.74088110e+00  1.75160856e+00  1.77951307e+00
  1.81095422e+00  1.83712766e+00  1.84243775e+00  1.88943837e+00  1.90541419e+00
  1.90823826e+00  1.94258529e+00  1.95215852e+00  1.95459422e+00  1.97024026e+00
  1.99613896e+00  2.00470062e+00  2.03858396e+00  2.07220725e+00  2.08673630e+00
  2.11079120e+00  2.11667856e+00  2.14312418e+00  2.15662483e+00  2.16260205e+00
  2.17517406e+00  2.18264429e+00  2.21945710e+00  2.23304981e+00  2.28915022e+00
  2.30966195e+00  2.31043117e+00  2.31253271e+00  2.33789949e+00  2.35835060e+00
  2.38900748e+00  2.40659184e+00  2.50266466e+00  2.52341715e+00  2.54431835e+00
  2.57552361e+00  2.59554984e+00  2.61494242e+00  2.63982561e+00  2.65341879e+00
  2.73490507e+00  2.74899781e+00  2.76157663e+00  2.77644964e+00  2.78896190e+00
  2.83318792e+00  2.86732379e+00  2.96469938e+00  3.04579883e+00  3.09572585e+00
  3.40587892e+00  4.06753183e+00  4.23756234e+00  4.25233766e+00  4.26473300e+00
  4.31421839e+00  4.34599847e+00  4.36981988e+00  4.40151307e+00  4.46058522e+00
  4.53950451e+00  4.66265565e+00  4.73672495e+00
Alpha MO coefficients                      R   N=       66564
 -2.45970361e-05 -1.60316828e-04  3.24362814e-05 -4.25625207e-05 -2.68669502e-05
  3.54196016e-04 -1.16873142e-04  5.84127260e-04  1.36578685e-04  2.24090297e-05
 -2.35000100e-05 -4.32765844e-05 -2.44158248e-05  1.33866069e-05 -2.97389426e-05
  1.31789187e-02  4.14270710e-03 -2.66875004e-02 -1.80901878e-03 -2.04968734e-06
 -7.10154453e-05 -1.10264866e-05  2.48652771e-05  1.01482749e-05  3.91407981e-05
  1.05870268e-04 -1.44868274e-04 -3.80764726e-05  8.94710041e-06  8.95417248e-06
  4.39762285e-05 -2.24925120e-05  4.84822104e-05 -2.92718716e-05  3.23391016e-02
  3.28576356e-03 -2.32542559e-03 -9.71507079e-03 -1.41250951e-05 -4.46439218e-05
 -1.44496247e-06  1.24101280e-05  2.67481941e-05  3.26705221e-04  1.08618999e-04
 -1.43489904e-04 -1.33187424e-04 -1.18000095e-05 -4.75563576e-05 -5.50920212e-05
  5.84625102e-06 -7.24288364e-06 -6.97458499e-06 -3.19970398e-03 -6.26823526e-04
  1.81777026e-04  1.02431205e-03 -2.10729354e-05 -3.08537102e-05  2.77339128e-05
  1.69576107e-05 -3.97950968e-05  1.18182219e-04  1.05168076e-04  1.64675281e-04
  1.74069248e-04 -1.16521913e-04 -2.51235072e-05 -4.17063979e-05 -1.85490013e-05
  9.27759534e-06  6.83774199e-06  3.53888424e-02 -6.38620878e-03 -7.09036386e-03
  2.93365797e-03 -5.78310055e-06 -3.13371036e-05 -7.49852791e-06  9.67119323e-06
  8.66548273e-06  1.23172312e-04 -4.07330829e-05 -2.08985470e-04 -5.21379581e-05
  2.41691194e-05 -1.02395815e-05 -1.45069344e-05  8.91273273e-06 -6.93786098e-06
  3.44390209e-06  2.68660492e-04 -3.37793568e-04  1.12509619e-03  1.59038651e-04
  1.90808618e-06  1.04273714e-05 -6.02064415e-06 -1.26061903e-05  1.67920077e-06
 -9.01352750e-05  1.21505112e-04 -2.05922764e-05 -1.90742701e-05 -4.76224482e-07
 -5.67132052e-07  5.20806763e-06  2.17824407e-06  4.99091346e-07  2.38368216e-06