Generated by Psi4
     FORCE                           RHF                       TESTBAS
Number of atoms                            I               25
Charge                                     I                0
Multiplicity                               I                1
Number of electrons                        I               94
Number of alpha electrons                  I               47
Number of beta electrons                   I               47
Number of basis functions                  I              271
Number of independent functions            I              271
Atomic numbers                             I   N=          25
           6           8           6           6           6           6
           6           7           6           6           6           1
           1           1           1           1           1           7
           1           1           6           1           1           1
           1
Nuclear charges                            R   N=          25
  6.00000000e+00  8.00000000e+00  6.00000000e+00  6.00000000e+00  6.00000000e+00
  6.00000000e+00  6.00000000e+00  7.00000000e+00  6.00000000e+00  6.00000000e+00
  6.00000000e+00  1.00000000e+00  1.00000000e+00  1.00000000e+00  1.00000000e+00
  1.00000000e+00  1.00000000e+00  7.00000000e+00  1.00000000e+00  1.00000000e+00
  6.00000000e+00  1.00000000e+00  1.00000000e+00  1.00000000e+00  1.00000000e+00
Current cartesian coordinates              R   N=          75
 -2.96195675e+00 -1.63055212e+00  3.30677261e+00 -1.10268926e+00  1.38080152e-01
  2.98467778e+00 -1.23393918e+00  8.60911444e-01  3.29334048e-01  3.18541706e+00
 -8.29375100e-01 -4.14267633e-01  1.37251327e+00  1.06720703e+00 -7.97998780e-01
  5.56267677e+00 -6.53925039e-01 -1.54117024e+00  6.15875244e+00  1.41186113e+00
 -3.08108549e+00 -4.16814175e+00 -2.43184844e+00  1.37171460e+00 -2.99749579e+00
 -1.21430791e+00 -8.31896335e-01  1.99146312e+00  3.13822298e+00 -2.32498149e+00
  4.36574728e+00  3.30791515e+00 -3.47244423e+00  6.95427038e+00 -2.13017849e+00
 -1.21738363e+00  8.01099383e+00  1.54399090e+00 -3.95922294e+00  2.73894853e+00
 -2.43035924e+00  7.91906540e-01  4.81500403e+00  4.92752767e+00 -4.65358078e+00
  6.11008807e-01  4.63476349e+00 -2.61425092e+00 -2.17299746e+00  2.70942490e+00
  2.62729586e-01 -3.22032439e+00 -2.43904803e+00  5.75459406e+00 -4.81180249e+00
 -3.44404414e+00  6.08965852e+00 -2.77023574e+00 -1.16504218e+00  7.10832323e+00
 -4.94834455e+00 -1.54542224e-01 -2.67373702e+00 -1.84030198e+00 -2.62217154e+00
 -1.83307924e+00 -6.15897380e+00  1.24252251e+00 -1.73656766e+00 -6.15679445e+00
 -1.67642194e+00 -3.38371085e+00 -4.02089093e+00  7.49639646e-01 -4.29316574e+00
Integer atomic weights                     I   N=          25
          12          15          12          12          12          12
          12          14          12          12          12           1
           1           1           1           1           1          14
           1           1          12           1           1           1
           1
Real atomic weights                        R   N=          25
  1.20000000e+01  1.59949146e+01  1.20000000e+01  1.20000000e+01  1.20000000e+01
  1.20000000e+01  1.20000000e+01  1.40030740e+01  1.20000000e+01  1.20000000e+01
  1.20000000e+01  1.00782503e+00  1.00782503e+00  1.00782503e+00  1.00782503e+00
  1.00782503e+00  1.00782503e+00  1.40030740e+01  1.00782503e+00  1.00782503e+00
  1.20000000e+01  1.00782503e+00  1.00782503e+00  1.00782503e+00  1.00782503e+00
Number of primitive shells                 I              269
Number of contracted shells                I              128
Pure/Cartesian d shells                    I                1
Pure/Cartesian f shells                    I                1
Highest angular momentum                   I                2
Largest degree of contraction              I                6
Shell types                                I   N=         128
           0           0           1           0           1           2
           0           1           0           0           1           0
           1           2           0           1           0           0
           1           0           1           2           0           1
           0           0           1           0           1           2
           0           1           0           0           1           0
           1           2           0           1           0           0
           1           0           1           2           0           1
           0           0           1           0           1           2
           0           1           0           0           1           0
           1           2           0           1           0           0
           1           0           1           2           0           1
           0           0           1           0           1           2
           0           1           0           0           1           0
           1           2           0           1           0           0
           0           0           0           0           0           0
           0           0           0           0           0           0
           1           0           1           2           0           1
           0           0           0           0           0           0
           1           0           1           2           0           1
           0           0           0           0           0           0
           0           0
Number of primitives per shell             I   N=         128
           6           3           3           1           1           1
           1           1           6           3           3           1
           1           1           1           1           6           3
           3           1           1           1           1           1
           6           3           3           1           1           1
           1           1           6           3           3           1
           1           1           1           1           6           3
           3           1           1           1           1           1
           6           3           3           1           1           1
           1           1           6           3           3           1
           1           1           1           1           6           3
           3           1           1           1           1           1
           6           3           3           1           1           1
           1           1           6           3           3           1
           1           1           1           1           3           1
           3           1           3           1           3           1
           3           1           3           1           6           3
           3           1           1           1           1           1
           3           1           3           1           6           3
           3           1           1           1           1           1
           3           1           3           1           3           1
           3           1
Shell to atom map                          I   N=         128
           1           1           1           1           1           1
           1           1           2           2           2           2
           2           2           2           2           3           3
           3           3           3           3           3           3
           4           4           4           4           4           4
           4           4           5           5           5           5
           5           5           5           5           6           6
           6           6           6           6           6           6
           7           7           7           7           7           7
           7           7           8           8           8           8
           8           8           8           8           9           9
           9           9           9           9           9           9
          10          10          10          10          10          10
          10          10          11          11          11          11
          11          11          11          11          12          12
          13          13          14          14          15          15
          16          16          17          17          18          18
          18          18          18          18          18          18
          19          19          20          20          21          21
          21          21          21          21          21          21
          22          22          23          23          24          24
          25          25
Primitive exponents                        R   N=         269
  3.04752490e+03  4.57369510e+02  1.03948690e+02  2.92101550e+01  9.28666300e+00
  3.16392700e+00  7.86827240e+00  1.88128850e+00  5.44249300e-01  7.86827240e+00
  1.88128850e+00  5.44249300e-01  1.68714400e-01  1.68714400e-01  8.00000000e-01
  4.38000000e-02  4.38000000e-02  5.48467170e+03  8.25234950e+02  1.88046960e+02
  5.29645000e+01  1.68975700e+01  5.79963530e+00  1.55396160e+01  3.59993360e+00
  1.01376180e+00  1.55396160e+01  3.59993360e+00  1.01376180e+00  2.70005800e-01
  2.70005800e-01  8.00000000e-01  8.45000000e-02  8.45000000e-02  3.04752490e+03
  4.57369510e+02  1.03948690e+02  2.92101550e+01  9.28666300e+00  3.16392700e+00
  7.86827240e+00  1.88128850e+00  5.44249300e-01  7.86827240e+00  1.88128850e+00
  5.44249300e-01  1.68714400e-01  1.68714400e-01  8.00000000e-01  4.38000000e-02
  4.38000000e-02  3.04752490e+03  4.57369510e+02  1.03948690e+02  2.92101550e+01
  9.28666300e+00  3.16392700e+00  7.86827240e+00  1.88128850e+00  5.44249300e-01
  7.86827240e+00  1.88128850e+00  5.44249300e-01  1.68714400e-01  1.68714400e-01
  8.00000000e-01  4.38000000e-02  4.38000000e-02  3.04752490e+03  4.57369510e+02
  1.03948690e+02  2.92101550e+01  9.28666300e+00  3.16392700e+00  7.86827240e+00
  1.88128850e+00  5.44249300e-01  7.86827240e+00  1.88128850e+00  5.44249300e-01
  1.68714400e-01  1.68714400e-01  8.00000000e-01  4.38000000e-02  4.38000000e-02
  3.04752490e+03  4.57369510e+02  1.03948690e+02  2.92101550e+01  9.28666300e+00
  3.16392700e+00  7.86827240e+00  1.88128850e+00  5.44249300e-01  7.86827240e+00
  1.88128850e+00  5.44249300e-01  1.68714400e-01  1.68714400e-01  8.00000000e-01
  4.38000000e-02  4.38000000e-02  3.04752490e+03  4.57369510e+02  1.03948690e+02
  2.92101550e+01  9.28666300e+00  3.16392700e+00  7.86827240e+00  1.88128850e+00
  5.44249300e-01  7.86827240e+00  1.88128850e+00  5.44249300e-01  1.68714400e-01
  1.68714400e-01  8.00000000e-01  4.38000000e-02  4.38000000e-02  4.17351100e+03
  6.27457900e+02  1.42902100e+02  4.02343300e+01  1.28202100e+01  4.39043700e+00
  1.16263580e+01  2.71628000e+00  7.72218000e-01  1.16263580e+01  2.71628000e+00
  7.72218000e-01  2.12031300e-01  2.12031300e-01  8.00000000e-01  6.39000000e-02
  6.39000000e-02  3.04752490e+03  4.57369510e+02  1.03948690e+02  2.92101550e+01
  9.28666300e+00  3.16392700e+00  7.86827240e+00  1.88128850e+00  5.44249300e-01
  7.86827240e+00  1.88128850e+00  5.44249300e-01  1.68714400e-01  1.68714400e-01
  8.00000000e-01  4.38000000e-02  4.38000000e-02  3.04752490e+03  4.57369510e+02
  1.03948690e+02  2.92101550e+01  9.28666300e+00  3.16392700e+00  7.86827240e+00
  1.88128850e+00  5.44249300e-01  7.86827240e+00  1.88128850e+00  5.44249300e-01
  1.68714400e-01  1.68714400e-01  8.00000000e-01  4.38000000e-02  4.38000000e-02
  3.04752490e+03  4.57369510e+02  1.03948690e+02  2.92101550e+01  9.28666300e+00
  3.16392700e+00  7.86827240e+00  1.88128850e+00  5.44249300e-01  7.86827240e+00
  1.88128850e+00  5.44249300e-01  1.68714400e-01  1.68714400e-01  8.00000000e-01
  4.38000000e-02  4.38000000e-02  1.87311370e+01  2.82539370e+00  6.40121700e-01
  1.61277800e-01  1.87311370e+01  2.82539370e+00  6.40121700e-01  1.61277800e-01
  1.87311370e+01  2.82539370e+00  6.40121700e-01  1.61277800e-01  1.87311370e+01
  2.82539370e+00  6.40121700e-01  1.61277800e-01  1.87311370e+01  2.82539370e+00
  6.40121700e-01  1.61277800e-01  1.87311370e+01  2.82539370e+00  6.40121700e-01
  1.61277800e-01  4.17351100e+03  6.27457900e+02  1.42902100e+02  4.02343300e+01
  1.28202100e+01  4.39043700e+00  1.16263580e+01  2.71628000e+00  7.72218000e-01
  1.16263580e+01  2.71628000e+00  7.72218000e-01  2.12031300e-01  2.12031300e-01
  8.00000000e-01  6.39000000e-02  6.39000000e-02  1.87311370e+01  2.82539370e+00
  6.40121700e-01  1.61277800e-01  1.87311370e+01  2.82539370e+00  6.40121700e-01
  1.61277800e-01  3.04752490e+03  4.57369510e+02  1.03948690e+02  2.92101550e+01
  9.28666300e+00  3.16392700e+00  7.86827240e+00  1.88128850e+00  5.44249300e-01
  7.86827240e+00  1.88128850e+00  5.44249300e-01  1.68714400e-01  1.68714400e-01
  8.00000000e-01  4.38000000e-02  4.38000000e-02  1.87311370e+01  2.82539370e+00
  6.40121700e-01  1.61277800e-01  1.87311370e+01  2.82539370e+00  6.40121700e-01
  1.61277800e-01  1.87311370e+01  2.82539370e+00  6.40121700e-01  1.61277800e-01
  1.87311370e+01  2.82539370e+00  6.40121700e-01  1.61277800e-01
Contraction coefficients                   R   N=         269
  1.83470016e-03  1.40373012e-02  6.88426061e-02  2.32184421e-01  4.67941342e-01
  3.62312032e-01 -1.19332409e-01 -1.60854212e-01  1.14345648e+00  6.89990956e-02
  3.16423980e-01  7.44308252e-01  1.00000000e+00  1.00000000e+00  1.00000000e+00
  1.00000000e+00  1.00000000e+00  1.83109981e-03  1.39500985e-02  6.84450927e-02
  2.32714275e-01  4.70192950e-01  3.58520862e-01 -1.10777504e-01 -1.48026305e-01
  1.13076704e+00  7.08742995e-02  3.39752798e-01  7.27158595e-01  1.00000000e+00
  1.00000000e+00  1.00000000e+00  1.00000000e+00  1.00000000e+00  1.83470016e-03
  1.40373012e-02  6.88426061e-02  2.32184421e-01  4.67941342e-01  3.62312032e-01
 -1.19332409e-01 -1.60854212e-01  1.14345648e+00  6.89990956e-02  3.16423980e-01
  7.44308252e-01  1.00000000e+00  1.00000000e+00  1.00000000e+00  1.00000000e+00
  1.00000000e+00  1.83470016e-03  1.40373012e-02  6.88426061e-02  2.32184421e-01
  4.67941342e-01  3.62312032e-01 -1.19332409e-01 -1.60854212e-01  1.14345648e+00
  6.89990956e-02  3.16423980e-01  7.44308252e-01  1.00000000e+00  1.00000000e+00
  1.00000000e+00  1.00000000e+00  1.00000000e+00  1.83470016e-03  1.40373012e-02
  6.88426061e-02  2.32184421e-01  4.67941342e-01  3.62312032e-01 -1.19332409e-01
 -1.60854212e-01  1.14345648e+00  6.89990956e-02  3.16423980e-01  7.44308252e-01
  1.00000000e+00  1.00000000e+00  1.00000000e+00  1.00000000e+00  1.00000000e+00
  1.83470016e-03  1.40373012e-02  6.88426061e-02  2.32184421e-01  4.67941342e-01
  3.62312032e-01 -1.19332409e-01 -1.60854212e-01  1.14345648e+00  6.89990956e-02
  3.16423980e-01  7.44308252e-01  1.00000000e+00  1.00000000e+00  1.00000000e+00
  1.00000000e+00  1.00000000e+00  1.83470016e-03  1.40373012e-02  6.88426061e-02
  2.32184421e-01  4.67941342e-01  3.62312032e-01 -1.19332409e-01 -1.60854212e-01
  1.14345648e+00  6.89990956e-02  3.16423980e-01  7.44308252e-01  1.00000000e+00
  1.00000000e+00  1.00000000e+00  1.00000000e+00  1.00000000e+00  1.83479944e-03
  1.39949958e-02  6.85869792e-02  2.32240930e-01  4.69069858e-01  3.60454891e-01
 -1.14961023e-01 -1.69118034e-01  1.14585223e+00  6.75800232e-02  3.23907111e-01
  7.40895255e-01  1.00000000e+00  1.00000000e+00  1.00000000e+00  1.00000000e+00
  1.00000000e+00  1.83470016e-03  1.40373012e-02  6.88426061e-02  2.32184421e-01
  4.67941342e-01  3.62312032e-01 -1.19332409e-01 -1.60854212e-01  1.14345648e+00
  6.89990956e-02  3.16423980e-01  7.44308252e-01  1.00000000e+00  1.00000000e+00
  1.00000000e+00  1.00000000e+00  1.00000000e+00  1.83470016e-03  1.40373012e-02
  6.88426061e-02  2.32184421e-01  4.67941342e-01  3.62312032e-01 -1.19332409e-01
 -1.60854212e-01  1.14345648e+00  6.89990956e-02  3.16423980e-01  7.44308252e-01
  1.00000000e+00  1.00000000e+00  1.00000000e+00  1.00000000e+00  1.00000000e+00
  1.83470016e-03  1.40373012e-02  6.88426061e-02  2.32184421e-01  4.67941342e-01
  3.62312032e-01 -1.19332409e-01 -1.60854212e-01  1.14345648e+00  6.89990956e-02
  3.16423980e-01  7.44308252e-01  1.00000000e+00  1.00000000e+00  1.00000000e+00
  1.00000000e+00  1.00000000e+00  3.34945995e-02  2.34726947e-01  8.13757318e-01
  1.00000000e+00  3.34945995e-02  2.34726947e-01  8.13757318e-01  1.00000000e+00
  3.34945995e-02  2.34726947e-01  8.13757318e-01  1.00000000e+00  3.34945995e-02
  2.34726947e-01  8.13757318e-01  1.00000000e+00  3.34945995e-02  2.34726947e-01
  8.13757318e-01  1.00000000e+00  3.34945995e-02  2.34726947e-01  8.13757318e-01
  1.00000000e+00  1.83479944e-03  1.39949958e-02  6.85869792e-02  2.32240930e-01
  4.69069858e-01  3.60454891e-01 -1.14961023e-01 -1.69118034e-01  1.14585223e+00
  6.75800232e-02  3.23907111e-01  7.40895255e-01  1.00000000e+00  1.00000000e+00
  1.00000000e+00  1.00000000e+00  1.00000000e+00  3.34945995e-02  2.34726947e-01
  8.13757318e-01  1.00000000e+00  3.34945995e-02  2.34726947e-01  8.13757318e-01
  1.00000000e+00  1.83470016e-03  1.40373012e-02  6.88426061e-02  2.32184421e-01
  4.67941342e-01  3.62312032e-01 -1.19332409e-01 -1.60854212e-01  1.14345648e+00
  6.89990956e-02  3.16423980e-01  7.44308252e-01  1.00000000e+00  1.00000000e+00
  1.00000000e+00  1.00000000e+00  1.00000000e+00  3.34945995e-02  2.34726947e-01
  8.13757318e-01  1.00000000e+00  3.34945995e-02  2.34726947e-01  8.13757318e-01
  1.00000000e+00  3.34945995e-02  2.34726947e-01  8.13757318e-01  1.00000000e+00
  3.34945995e-02  2.34726947e-01  8.13757318e-01  1.00000000e+00
Coordinates of each shell                  R   N=         384
 -2.96195675e+00 -1.63055212e+00  3.30677261e+00 -2.96195675e+00 -1.63055212e+00
  3.30677261e+00 -2.96195675e+00 -1.63055212e+00  3.30677261e+00 -2.96195675e+00
 -1.63055212e+00  3.30677261e+00 -2.96195675e+00 -1.63055212e+00  3.30677261e+00
 -2.96195675e+00 -1.63055212e+00  3.30677261e+00 -2.96195675e+00 -1.63055212e+00
  3.30677261e+00 -2.96195675e+00 -1.63055212e+00  3.30677261e+00 -1.10268926e+00
  1.38080152e-01  2.98467778e+00 -1.10268926e+00  1.38080152e-01  2.98467778e+00
 -1.10268926e+00  1.38080152e-01  2.98467778e+00 -1.10268926e+00  1.38080152e-01
  2.98467778e+00 -1.10268926e+00  1.38080152e-01  2.98467778e+00 -1.10268926e+00
  1.38080152e-01  2.98467778e+00 -1.10268926e+00  1.38080152e-01  2.98467778e+00
 -1.10268926e+00  1.38080152e-01  2.98467778e+00 -1.23393918e+00  8.60911444e-01
  3.29334048e-01 -1.23393918e+00  8.60911444e-01  3.29334048e-01 -1.23393918e+00
  8.60911444e-01  3.29334048e-01 -1.23393918e+00  8.60911444e-01  3.29334048e-01
 -1.23393918e+00  8.60911444e-01  3.29334048e-01 -1.23393918e+00  8.60911444e-01
  3.29334048e-01 -1.23393918e+00  8.60911444e-01  3.29334048e-01 -1.23393918e+00
  8.60911444e-01  3.29334048e-01  3.18541706e+00 -8.29375100e-01 -4.14267633e-01
  3.18541706e+00 -8.29375100e-01 -4.14267633e-01  3.18541706e+00 -8.29375100e-01
 -4.14267633e-01  3.18541706e+00 -8.29375100e-01 -4.14267633e-01  3.18541706e+00
 -8.29375100e-01 -4.14267633e-01  3.18541706e+00 -8.29375100e-01 -4.14267633e-01
  3.18541706e+00 -8.29375100e-01 -4.14267633e-01  3.18541706e+00 -8.29375100e-01
 -4.14267633e-01  1.37251327e+00  1.06720703e+00 -7.97998780e-01  1.37251327e+00
  1.06720703e+00 -7.97998780e-01  1.37251327e+00  1.06720703e+00 -7.97998780e-01
  1.37251327e+00  1.06720703e+00 -7.97998780e-01  1.37251327e+00  1.06720703e+00
 -7.97998780e-01  1.37251327e+00  1.06720703e+00 -7.97998780e-01  1.37251327e+00
  1.06720703e+00 -7.97998780e-01  1.37251327e+00  1.06720703e+00 -7.97998780e-01
  5.56267677e+00 -6.53925039e-01 -1.54117024e+00  5.56267677e+00 -6.53925039e-01
 -1.54117024e+00  5.56267677e+00 -6.53925039e-01 -1.54117024e+00  5.56267677e+00
 -6.53925039e-01 -1.54117024e+00  5.56267677e+00 -6.53925039e-01 -1.54117024e+00
  5.56267677e+00 -6.53925039e-01 -1.54117024e+00  5.56267677e+00 -6.53925039e-01
 -1.54117024e+00  5.56267677e+00 -6.53925039e-01 -1.54117024e+00  6.15875244e+00
  1.41186113e+00 -3.08108549e+00  6.15875244e+00  1.41186113e+00 -3.08108549e+00
  6.15875244e+00  1.41186113e+00 -3.08108549e+00  6.15875244e+00  1.41186113e+00
 -3.08108549e+00  6.15875244e+00  1.41186113e+00 -3.08108549e+00  6.15875244e+00
  1.41186113e+00 -3.08108549e+00  6.15875244e+00  1.41186113e+00 -3.08108549e+00
  6.15875244e+00  1.41186113e+00 -3.08108549e+00 -4.16814175e+00 -2.43184844e+00
  1.37171460e+00 -4.16814175e+00 -2.43184844e+00  1.37171460e+00 -4.16814175e+00
 -2.43184844e+00  1.37171460e+00 -4.16814175e+00 -2.43184844e+00  1.37171460e+00
 -4.16814175e+00 -2.43184844e+00  1.37171460e+00 -4.16814175e+00 -2.43184844e+00
  1.37171460e+00 -4.16814175e+00 -2.43184844e+00  1.37171460e+00 -4.16814175e+00
 -2.43184844e+00  1.37171460e+00 -2.99749579e+00 -1.21430791e+00 -8.31896335e-01
 -2.99749579e+00 -1.21430791e+00 -8.31896335e-01 -2.99749579e+00 -1.21430791e+00
 -8.31896335e-01 -2.99749579e+00 -1.21430791e+00 -8.31896335e-01 -2.99749579e+00
 -1.21430791e+00 -8.31896335e-01 -2.99749579e+00 -1.21430791e+00 -8.31896335e-01
 -2.99749579e+00 -1.21430791e+00 -8.31896335e-01 -2.99749579e+00 -1.21430791e+00
 -8.31896335e-01  1.99146312e+00  3.13822298e+00 -2.32498149e+00  1.99146312e+00
  3.13822298e+00 -2.32498149e+00  1.99146312e+00  3.13822298e+00 -2.32498149e+00
  1.99146312e+00  3.13822298e+00 -2.32498149e+00  1.99146312e+00  3.13822298e+00
 -2.32498149e+00  1.99146312e+00  3.13822298e+00 -2.32498149e+00  1.99146312e+00
  3.13822298e+00 -2.32498149e+00  1.99146312e+00  3.13822298e+00 -2.32498149e+00
  4.36574728e+00  3.30791515e+00 -3.47244423e+00  4.36574728e+00  3.30791515e+00
 -3.47244423e+00  4.36574728e+00  3.30791515e+00 -3.47244423e+00  4.36574728e+00
  3.30791515e+00 -3.47244423e+00  4.36574728e+00  3.30791515e+00 -3.47244423e+00
  4.36574728e+00  3.30791515e+00 -3.47244423e+00  4.36574728e+00  3.30791515e+00
 -3.47244423e+00  4.36574728e+00  3.30791515e+00 -3.47244423e+00  6.95427038e+00
 -2.13017849e+00 -1.21738363e+00  6.95427038e+00 -2.13017849e+00 -1.21738363e+00
  8.01099383e+00  1.54399090e+00 -3.95922294e+00  8.01099383e+00  1.54399090e+00
 -3.95922294e+00  2.73894853e+00 -2.43035924e+00  7.91906540e-01  2.73894853e+00
 -2.43035924e+00  7.91906540e-01  4.81500403e+00  4.92752767e+00 -4.65358078e+00
  4.81500403e+00  4.92752767e+00 -4.65358078e+00  6.11008807e-01  4.63476349e+00
 -2.61425092e+00  6.11008807e-01  4.63476349e+00 -2.61425092e+00 -2.17299746e+00
  2.70942490e+00  2.62729586e-01 -2.17299746e+00  2.70942490e+00  2.62729586e-01
 -3.22032439e+00 -2.43904803e+00  5.75459406e+00 -3.22032439e+00 -2.43904803e+00
  5.75459406e+00 -3.22032439e+00 -2.43904803e+00  5.75459406e+00 -3.22032439e+00
 -2.43904803e+00  5.75459406e+00 -3.22032439e+00 -2.43904803e+00  5.75459406e+00
 -3.22032439e+00 -2.43904803e+00  5.75459406e+00 -3.22032439e+00 -2.43904803e+00
  5.75459406e+00 -3.22032439e+00 -2.43904803e+00  5.75459406e+00 -4.81180249e+00
 -3.44404414e+00  6.08965852e+00 -4.81180249e+00 -3.44404414e+00  6.08965852e+00
 -2.77023574e+00 -1.16504218e+00  7.10832323e+00 -2.77023574e+00 -1.16504218e+00
  7.10832323e+00 -4.94834455e+00 -1.54542224e-01 -2.67373702e+00 -4.94834455e+00
 -1.54542224e-01 -2.67373702e+00 -4.94834455e+00 -1.54542224e-01 -2.67373702e+00
 -4.94834455e+00 -1.54542224e-01 -2.67373702e+00 -4.94834455e+00 -1.54542224e-01
 -2.67373702e+00 -4.94834455e+00 -1.54542224e-01 -2.67373702e+00 -4.94834455e+00
 -1.54542224e-01 -2.67373702e+00 -4.94834455e+00 -1.54542224e-01 -2.67373702e+00
 -1.84030198e+00 -2.62217154e+00 -1.83307924e+00 -1.84030198e+00 -2.62217154e+00
 -1.83307924e+00 -6.15897380e+00  1.24252251e+00 -1.73656766e+00 -6.15897380e+00
  1.24252251e+00 -1.73656766e+00 -6.15679445e+00 -1.67642194e+00 -3.38371085e+00
 -6.15679445e+00 -1.67642194e+00 -3.38371085e+00 -4.02089093e+00  7.49639646e-01
 -4.29316574e+00 -4.02089093e+00  7.49639646e-01 -4.29316574e+00
Total Energy                               R     -5.730424617784263e+02
Alpha Orbital Energies                     R   N=         271
 -1.91930875e+01 -1.43663797e+01 -1.43059106e+01 -1.03074899e+01 -1.02561645e+01
 -1.02233313e+01 -1.02087629e+01 -1.02028247e+01 -1.02021192e+01 -1.02016320e+01
 -1.02010208e+01 -1.01996839e+01 -1.01798921e+01 -1.09804663e+00 -9.36738630e-01
 -8.93554824e-01 -8.66002321e-01 -7.91960648e-01 -7.54762467e-01 -7.47885473e-01
 -6.92525381e-01 -6.24569449e-01 -6.13615498e-01 -6.03737988e-01 -5.81572019e-01
 -5.36822463e-01 -5.28138024e-01 -5.08669235e-01 -4.90327023e-01 -4.68081590e-01
 -4.55577639e-01 -4.43084913e-01 -4.32917981e-01 -4.28762237e-01 -4.17213375e-01
 -4.02413771e-01 -3.80963999e-01 -3.77868596e-01 -3.66390366e-01 -3.60178620e-01
 -3.51871610e-01 -3.39433271e-01 -2.99139788e-01 -2.83586772e-01 -2.61332768e-01
 -2.49794917e-01 -2.35508779e-01 -2.42464370e-02 -1.82737946e-02 -3.44858368e-03
  5.71416020e-03  1.63084808e-02  2.31323748e-02  3.19348039e-02  3.76393046e-02
  4.00025635e-02  4.67434001e-02  5.10338924e-02  5.53583846e-02  6.37624903e-02
  6.70145470e-02  7.18796121e-02  8.43004824e-02  8.78546349e-02  9.10527811e-02
  9.27147011e-02  1.01969142e-01  1.10680662e-01  1.14785940e-01  1.18834872e-01
  1.25295142e-01  1.27628073e-01  1.38756107e-01  1.41916452e-01  1.43012601e-01
  1.46021476e-01  1.56745414e-01  1.57488407e-01  1.66020050e-01  1.72606293e-01
  1.75383829e-01  1.80714022e-01  1.83181631e-01  1.88465430e-01  1.94182512e-01
  1.96254386e-01  1.98754271e-01  2.06001209e-01  2.08079730e-01  2.17573852e-01
  2.18882753e-01  2.23961470e-01  2.27696154e-01  2.34552715e-01  2.41703990e-01
  2.44308097e-01  2.48723975e-01  2.53762242e-01  2.59791085e-01  2.61438837e-01
  2.66446247e-01  2.69259370e-01  2.75336174e-01  2.77631219e-01  2.81541022e-01
  2.89133979e-01  2.95542948e-01  2.97973982e-01  3.09727803e-01  3.17628276e-01
  3.22931315e-01  3.32386844e-01  3.35006547e-01  3.40308916e-01  3.53940102e-01
  3.60017002e-01  3.66045979e-01  3.73569699e-01  3.82167143e-01  3.88305326e-01
  4.00436069e-01  4.10047543e-01  4.32608480e-01  4.41590838e-01  4.60705998e-01
  4.69813122e-01  5.13689804e-01  5.75292602e-01  6.06539920e-01  6.43826681e-01
  6.62153161e-01  6.79546384e-01  6.85672005e-01  6.94339863e-01  7.03505977e-01
  7.22123645e-01  7.27318793e-01  7.33361180e-01  7.42875147e-01  7.47851516e-01
  7.53789241e-01  7.70075109e-01  7.79621147e-01  7.95139957e-01  8.13010725e-01
  8.15626789e-01  8.16983527e-01  8.36456167e-01  8.40165844e-01  8.43995289e-01
  8.90121543e-01  8.99350452e-01  9.17863967e-01  9.29002706e-01  9.37210577e-01
  9.50278778e-01  9.56133201e-01  9.69415232e-01  9.70455065e-01  9.96702939e-01
  1.00700470e+00  1.01065192e+00  1.02776759e+00  1.03705509e+00  1.04436374e+00
  1.05683291e+00  1.06090760e+00  1.08535021e+00  1.08890321e+00  1.10755875e+00
  1.12594249e+00  1.14560729e+00  1.15231862e+00  1.15870868e+00  1.17131828e+00
  1.18778079e+00  1.19841824e+00  1.20849719e+00  1.22152369e+00  1.25531200e+00
  1.26096898e+00  1.26931800e+00  1.28099549e+00  1.31528760e+00  1.37339727e+00
  1.39888505e+00  1.40856347e+00  1.43280790e+00  1.44803152e+00  1.45589954e+00
  1.47700148e+00  1.48121492e+00  1.49150819e+00  1.50513745e+00  1.51345982e+00
  1.53618164e+00  1.57919480e+00  1.62007480e+00  1.67394073e+00  1.70670692e+00
  1.74451815e+00  1.77063043e+00  1.78506068e+00  1.79451129e+00  1.81086132e+00
  1.83795705e+00  1.84914923e+00  1.87144402e+00  1.88920924e+00  1.90984242e+00
  1.93157480e+00  1.96252457e+00  1.97062775e+00  1.99391755e+00  2.00022238e+00
  2.04428114e+00  2.05335450e+00  2.09137272e+00  2.09586597e+00  2.13403948e+00
  2.15099948e+00  2.16346461e+00  2.17013902e+00  2.18961159e+00  2.20619718e+00
  2.21731274e+00  2.23883400e+00  2.27022382e+00  2.28423495e+00  2.30286943e+00
  2.30367151e+00  2.32095455e+00  2.33519722e+00  2.40071772e+00  2.43256511e+00
  2.46256701e+00  2.48915135e+00  2.55664573e+00  2.58672426e+00  2.61078356e+00
  2.62129631e+00  2.63207202e+00  2.63962386e+00  2.66376238e+00  2.68725537e+00
  2.74188664e+00  2.76267457e+00  2.76652874e+00  2.78961625e+00  2.81108897e+00
  2.83752735e+00  2.90812032e+00  2.96230097e+00  2.98181998e+00  3.06727935e+00
  3.13139275e+00  3.17187322e+00  3.39778200e+00  4.00989237e+00  4.21470896e+00
  4.24241784e+00  4.24794115e+00  4.29749906e+00  4.33475104e+00  4.37430050e+00
  4.39619533e+00  4.50985575e+00  4.55978582e+00  4.58007069e+00  4.73774427e+00
  4.77275687e+00
Alpha MO coefficients                      R   N=       73441
 -5.51464349e-05 -1.69859964e-05  3.08591455e-04  2.87710831e-04 -7.32536792e-05
  1.43470943e-03  4.62157015e-05  2.58659489e-04 -6.36687843e-04  1.07859605e-04
  9.00086385e-05 -4.25080900e-05  2.69314922e-04 -4.17564490e-05 -6.03881068e-05
 -4.34269783e-04 -1.39650190e-03 -1.79679078e-03 -2.16855939e-03  9.92500756e-01
  2.51621539e-02 -7.77059997e-04 -4.69885030e-04 -7.04840704e-04  1.61517610e-02
  1.04963119e-03  6.27421153e-04  8.40784294e-04 -8.89956760e-03 -8.88089904e-03
 -9.02202710e-03 -1.91022560e-04 -3.49568876e-05  7.41697747e-05 -1.68336425e-02
 -3.43631673e-04 -1.61499659e-04  1.89142296e-03 -4.69230360e-05 -1.90222949e-04
  2.15804673e-05 -8.45281778e-05  2.26626251e-04  7.17779422e-04 -1.16153832e-04
 -6.33870949e-04  6.60756119e-04 -5.67299331e-05  6.36033157e-06  4.65106489e-04
 -1.79606303e-06  1.00848741e-05 -1.84003195e-04  5.77285793e-02 -5.73139887e-04
 -1.44090183e-02  4.30168991e-03  5.83492387e-06 -2.56914122e-05 -2.80724324e-05
 -1.51438148e-06 -1.34073913e-05  2.65498103e-04 -4.01096103e-04  1.96389295e-04
  2.61357323e-04  5.79568677e-05  3.74269354e-06  4.34069511e-05 -1.70952366e-05
 -4.26920536e-05  1.02521306e-05 -1.18129522e-02  1.29668833e-02 -3.86163671e-03
 -3.40094158e-03  1.45155723e-05  9.46381378e-05 -4.29473027e-05 -5.70407158e-05
  3.35493543e-05  1.21141371e-04  1.25746142e-05  1.07478077e-03 -4.88310972e-04
  1.41809532e-05  4.55348151e-05 -1.60541359e-05  1.39707498e-05  1.34487996e-06