Generated by Psi4
     FORCE                           RHF                       TESTBAS
Number of atoms                            I               39
Charge                                     I                0
Multiplicity                               I                1
Number of electrons                        I              130
Number of alpha electrons                  I               65
Number of beta electrons                   I               65
Number of basis functions                  I              384
Number of independent functions            I              384
Atomic numbers                             I   N=          39
           6           6           6           1           1           7
           6           6           6           6           6           1
           1           1           1           1           6           1
           1           1           1           6           6           1
           1           6           6           6           6           6
           1           1           1           1           1           6
           1           1           1
Nuclear charges                            R   N=          39
  6.00000000e+00  6.00000000e+00  6.00000000e+00  1.00000000e+00  1.00000000e+00
  7.00000000e+00  6.00000000e+00  6.00000000e+00  6.00000000e+00  6.00000000e+00
  6.00000000e+00  1.00000000e+00  1.00000000e+00  1.00000000e+00  1.00000000e+00
  1.00000000e+00  6.00000000e+00  1.00000000e+00  1.00000000e+00  1.00000000e+00
  1.00000000e+00  6.00000000e+00  6.00000000e+00  1.00000000e+00  1.00000000e+00
  6.00000000e+00  6.00000000e+00  6.00000000e+00  6.00000000e+00  6.00000000e+00
  1.00000000e+00  1.00000000e+00  1.00000000e+00  1.00000000e+00  1.00000000e+00
  6.00000000e+00  1.00000000e+00  1.00000000e+00  1.00000000e+00
Current cartesian coordinates              R   N=         117
  5.33109572e+00  2.48575843e-01 -2.75368992e+00  3.18787474e+00 -1.11713829e+00
 -1.42987499e+00  8.43393620e-01  5.60142204e-01 -8.91281907e-01  3.85985179e+00
 -1.90006054e+00  3.70190944e-01  2.62962857e+00 -2.71764996e+00 -2.61501682e+00
 -1.17995188e+00 -8.88538465e-01  4.03821462e-01  7.56833583e+00  8.68737314e-01
 -1.47656968e+00  9.54456267e+00  2.11427782e+00 -2.71138227e+00  9.31485568e+00
  2.76496511e+00 -5.25966297e+00  7.09898041e+00  2.15027629e+00 -6.56165799e+00
  5.13458783e+00  9.00053466e-01 -5.31861984e+00  7.76777023e+00  3.67473183e-01
  5.07634309e-01  3.42748133e+00  4.12711684e-01 -6.35752932e+00  1.12628792e+01
  2.57098155e+00 -1.68120335e+00  1.08492189e+01  3.73096206e+00 -6.22529193e+00
  6.90472725e+00  2.63311926e+00 -8.54954887e+00  1.62956878e+00  2.85583329e+00
  7.03933598e-01  1.36152550e-01  1.24117954e+00 -2.74482207e+00  2.40431274e+00
  2.22402542e+00  2.51946599e+00  5.67590115e-02  4.13724227e+00  1.09765945e+00
  3.07848221e+00  3.95479920e+00 -2.79564096e-01 -3.59724525e+00  4.80444265e-01
  4.04753238e-01 -5.44669507e+00 -4.49319497e-01  2.39562093e+00 -4.51124923e+00
  3.88469205e-01 -1.47869595e+00 -3.22018673e+00  2.47999222e+00  7.61118531e-01
 -4.65331967e+00 -8.69057222e-01  4.89029522e+00 -6.37475377e+00 -1.62813710e+00
  6.74032573e+00 -8.92324471e+00 -1.97828233e+00  6.12737038e+00 -9.73128180e+00
 -1.57015643e+00  3.64832991e+00 -7.99874111e+00 -8.16511873e-01  1.79886867e+00
 -8.63995673e+00 -5.14436079e-01 -1.32272401e-01 -5.72801828e+00 -1.94766425e+00
  8.66472146e+00 -2.66931230e+00 -6.19564578e-01  5.35721939e+00 -1.17043678e+01
 -1.84811715e+00  3.14624711e+00 -1.02622612e+01 -2.57088494e+00  7.56850190e+00
 -1.59051684e+00 -3.44530829e+00 -5.69418142e-01  4.05085067e-02 -4.65591002e+00
 -2.04473702e-01 -2.00673856e+00 -3.47834666e+00 -2.62295571e+00 -3.20588890e+00
 -4.27575469e+00  4.15226456e-01
Integer atomic weights                     I   N=          39
          12          12          12           1           1          14
          12          12          12          12          12           1
           1           1           1           1          12           1
           1           1           1          12          12           1
           1          12          12          12          12          12
           1           1           1           1           1          12
           1           1           1
Real atomic weights                        R   N=          39
  1.20000000e+01  1.20000000e+01  1.20000000e+01  1.00782503e+00  1.00782503e+00
  1.40030740e+01  1.20000000e+01  1.20000000e+01  1.20000000e+01  1.20000000e+01
  1.20000000e+01  1.00782503e+00  1.00782503e+00  1.00782503e+00  1.00782503e+00
  1.00782503e+00  1.20000000e+01  1.00782503e+00  1.00782503e+00  1.00782503e+00
  1.00782503e+00  1.20000000e+01  1.20000000e+01  1.00782503e+00  1.00782503e+00
  1.20000000e+01  1.20000000e+01  1.20000000e+01  1.20000000e+01  1.20000000e+01
  1.00782503e+00  1.00782503e+00  1.00782503e+00  1.00782503e+00  1.00782503e+00
  1.20000000e+01  1.00782503e+00  1.00782503e+00  1.00782503e+00
Number of primitive shells                 I              390
Number of contracted shells                I              186
Pure/Cartesian d shells                    I                1
Pure/Cartesian f shells                    I                1
Highest angular momentum                   I                2
Largest degree of contraction              I                6
Shell types                                I   N=         186
           0           0           1           0           1           2
           0           1           0           0           1           0
           1           2           0           1           0           0
           1           0           1           2           0           1
           0           0           0           0           0           0
           1           0           1           2           0           1
           0           0           1           0           1           2
           0           1           0           0           1           0
           1           2           0           1           0           0
           1           0           1           2           0           1
           0           0           1           0           1           2
           0           1           0           0           1           0
           1           2           0           1           0           0
           0           0           0           0           0           0
           0           0           0           0           1           0
           1           2           0           1           0           0
           0           0           0           0           0           0
           0           0           1           0           1           2
           0           1           0           0           1           0
           1           2           0           1           0           0
           0           0           0           0           1           0
           1           2           0           1           0           0
           1           0           1           2           0           1
           0           0           1           0           1           2
           0           1           0           0           1           0
           1           2           0           1           0           0
           1           0           1           2           0           1
           0           0           0           0           0           0
           0           0           0           0           0           0
           1           0           1           2           0           1
           0           0           0           0           0           0
Number of primitives per shell             I   N=         186
           6           3           3           1           1           1
           1           1           6           3           3           1
           1           1           1           1           6           3
           3           1           1           1           1           1
           3           1           3           1           6           3
           3           1           1           1           1           1
           6           3           3           1           1           1
           1           1           6           3           3           1
           1           1           1           1           6           3
           3           1           1           1           1           1
           6           3           3           1           1           1
           1           1           6           3           3           1
           1           1           1           1           3           1
           3           1           3           1           3           1
           3           1           6           3           3           1
           1           1           1           1           3           1
           3           1           3           1           3           1
           6           3           3           1           1           1
           1           1           6           3           3           1
           1           1           1           1           3           1
           3           1           6           3           3           1
           1           1           1           1           6           3
           3           1           1           1           1           1
           6           3           3           1           1           1
           1           1           6           3           3           1
           1           1           1           1           6           3
           3           1           1           1           1           1
           3           1           3           1           3           1
           3           1           3           1           6           3
           3           1           1           1           1           1
           3           1           3           1           3           1
Shell to atom map                          I   N=         186
           1           1           1           1           1           1
           1           1           2           2           2           2
           2           2           2           2           3           3
           3           3           3           3           3           3
           4           4           5           5           6           6
           6           6           6           6           6           6
           7           7           7           7           7           7
           7           7           8           8           8           8
           8           8           8           8           9           9
           9           9           9           9           9           9
          10          10          10          10          10          10
          10          10          11          11          11          11
          11          11          11          11          12          12
          13          13          14          14          15          15
          16          16          17          17          17          17
          17          17          17          17          18          18
          19          19          20          20          21          21
          22          22          22          22          22          22
          22          22          23          23          23          23
          23          23          23          23          24          24
          25          25          26          26          26          26
          26          26          26          26          27          27
          27          27          27          27          27          27
          28          28          28          28          28          28
          28          28          29          29          29          29
          29          29          29          29          30          30
          30          30          30          30          30          30
          31          31          32          32          33          33
          34          34          35          35          36          36
          36          36          36          36          36          36
          37          37          38          38          39          39
Primitive exponents                        R   N=         390
  3.04752490e+03  4.57369510e+02  1.03948690e+02  2.92101550e+01  9.28666300e+00
  3.16392700e+00  7.86827240e+00  1.88128850e+00  5.44249300e-01  7.86827240e+00
  1.88128850e+00  5.44249300e-01  1.68714400e-01  1.68714400e-01  8.00000000e-01
  4.38000000e-02  4.38000000e-02  3.04752490e+03  4.57369510e+02  1.03948690e+02
  2.92101550e+01  9.28666300e+00  3.16392700e+00  7.86827240e+00  1.88128850e+00
  5.44249300e-01  7.86827240e+00  1.88128850e+00  5.44249300e-01  1.68714400e-01
  1.68714400e-01  8.00000000e-01  4.38000000e-02  4.38000000e-02  3.04752490e+03
  4.57369510e+02  1.03948690e+02  2.92101550e+01  9.28666300e+00  3.16392700e+00
  7.86827240e+00  1.88128850e+00  5.44249300e-01  7.86827240e+00  1.88128850e+00
  5.44249300e-01  1.68714400e-01  1.68714400e-01  8.00000000e-01  4.38000000e-02
  4.38000000e-02  1.87311370e+01  2.82539370e+00  6.40121700e-01  1.61277800e-01
  1.87311370e+01  2.82539370e+00  6.40121700e-01  1.61277800e-01  4.17351100e+03
  6.27457900e+02  1.42902100e+02  4.02343300e+01  1.28202100e+01  4.39043700e+00
  1.16263580e+01  2.71628000e+00  7.72218000e-01  1.16263580e+01  2.71628000e+00
  7.72218000e-01  2.12031300e-01  2.12031300e-01  8.00000000e-01  6.39000000e-02
  6.39000000e-02  3.04752490e+03  4.57369510e+02  1.03948690e+02  2.92101550e+01
  9.28666300e+00  3.16392700e+00  7.86827240e+00  1.88128850e+00  5.44249300e-01
  7.86827240e+00  1.88128850e+00  5.44249300e-01  1.68714400e-01  1.68714400e-01
  8.00000000e-01  4.38000000e-02  4.38000000e-02  3.04752490e+03  4.57369510e+02
  1.03948690e+02  2.92101550e+01  9.28666300e+00  3.16392700e+00  7.86827240e+00
  1.88128850e+00  5.44249300e-01  7.86827240e+00  1.88128850e+00  5.44249300e-01
  1.68714400e-01  1.68714400e-01  8.00000000e-01  4.38000000e-02  4.38000000e-02
  3.04752490e+03  4.57369510e+02  1.03948690e+02  2.92101550e+01  9.28666300e+00
  3.16392700e+00  7.86827240e+00  1.88128850e+00  5.44249300e-01  7.86827240e+00
  1.88128850e+00  5.44249300e-01  1.68714400e-01  1.68714400e-01  8.00000000e-01
  4.38000000e-02  4.38000000e-02  3.04752490e+03  4.57369510e+02  1.03948690e+02
  2.92101550e+01  9.28666300e+00  3.16392700e+00  7.86827240e+00  1.88128850e+00
  5.44249300e-01  7.86827240e+00  1.88128850e+00  5.44249300e-01  1.68714400e-01
  1.68714400e-01  8.00000000e-01  4.38000000e-02  4.38000000e-02  3.04752490e+03
  4.57369510e+02  1.03948690e+02  2.92101550e+01  9.28666300e+00  3.16392700e+00
  7.86827240e+00  1.88128850e+00  5.44249300e-01  7.86827240e+00  1.88128850e+00
  5.44249300e-01  1.68714400e-01  1.68714400e-01  8.00000000e-01  4.38000000e-02
  4.38000000e-02  1.87311370e+01  2.82539370e+00  6.40121700e-01  1.61277800e-01
  1.87311370e+01  2.82539370e+00  6.40121700e-01  1.61277800e-01  1.87311370e+01
  2.82539370e+00  6.40121700e-01  1.61277800e-01  1.87311370e+01  2.82539370e+00
  6.40121700e-01  1.61277800e-01  1.87311370e+01  2.82539370e+00  6.40121700e-01
  1.61277800e-01  3.04752490e+03  4.57369510e+02  1.03948690e+02  2.92101550e+01
  9.28666300e+00  3.16392700e+00  7.86827240e+00  1.88128850e+00  5.44249300e-01
  7.86827240e+00  1.88128850e+00  5.44249300e-01  1.68714400e-01  1.68714400e-01
  8.00000000e-01  4.38000000e-02  4.38000000e-02  1.87311370e+01  2.82539370e+00
  6.40121700e-01  1.61277800e-01  1.87311370e+01  2.82539370e+00  6.40121700e-01
  1.61277800e-01  1.87311370e+01  2.82539370e+00  6.40121700e-01  1.61277800e-01
  1.87311370e+01  2.82539370e+00  6.40121700e-01  1.61277800e-01  3.04752490e+03
  4.57369510e+02  1.03948690e+02  2.92101550e+01  9.28666300e+00  3.16392700e+00
  7.86827240e+00  1.88128850e+00  5.44249300e-01  7.86827240e+00  1.88128850e+00
  5.44249300e-01  1.68714400e-01  1.68714400e-01  8.00000000e-01  4.38000000e-02
  4.38000000e-02  3.04752490e+03  4.57369510e+02  1.03948690e+02  2.92101550e+01
  9.28666300e+00  3.16392700e+00  7.86827240e+00  1.88128850e+00  5.44249300e-01
  7.86827240e+00  1.88128850e+00  5.44249300e-01  1.68714400e-01  1.68714400e-01
  8.00000000e-01  4.38000000e-02  4.38000000e-02  1.87311370e+01  2.82539370e+00
  6.40121700e-01  1.61277800e-01  1.87311370e+01  2.82539370e+00  6.40121700e-01
  1.61277800e-01  3.04752490e+03  4.57369510e+02  1.03948690e+02  2.92101550e+01
  9.28666300e+00  3.16392700e+00  7.86827240e+00  1.88128850e+00  5.44249300e-01
  7.86827240e+00  1.88128850e+00  5.44249300e-01  1.68714400e-01  1.68714400e-01
  8.00000000e-01  4.38000000e-02  4.38000000e-02  3.04752490e+03  4.57369510e+02
  1.03948690e+02  2.92101550e+01  9.28666300e+00  3.16392700e+00  7.86827240e+00
  1.88128850e+00  5.44249300e-01  7.86827240e+00  1.88128850e+00  5.44249300e-01
  1.68714400e-01  1.68714400e-01  8.00000000e-01  4.38000000e-02  4.38000000e-02
  3.04752490e+03  4.57369510e+02  1.03948690e+02  2.92101550e+01  9.28666300e+00
  3.16392700e+00  7.86827240e+00  1.88128850e+00  5.44249300e-01  7.86827240e+00
  1.88128850e+00  5.44249300e-01  1.68714400e-01  1.68714400e-01  8.00000000e-01
  4.38000000e-02  4.38000000e-02  3.04752490e+03  4.57369510e+02  1.03948690e+02
  2.92101550e+01  9.28666300e+00  3.16392700e+00  7.86827240e+00  1.88128850e+00
  5.44249300e-01  7.86827240e+00  1.88128850e+00  5.44249300e-01  1.68714400e-01
  1.68714400e-01  8.00000000e-01  4.38000000e-02  4.38000000e-02  3.04752490e+03
  4.57369510e+02  1.03948690e+02  2.92101550e+01  9.28666300e+00  3.16392700e+00
  7.86827240e+00  1.88128850e+00  5.44249300e-01  7.86827240e+00  1.88128850e+00
  5.44249300e-01  1.68714400e-01  1.68714400e-01  8.00000000e-01  4.38000000e-02
  4.38000000e-02  1.87311370e+01  2.82539370e+00  6.40121700e-01  1.61277800e-01
  1.87311370e+01  2.82539370e+00  6.40121700e-01  1.61277800e-01  1.87311370e+01
  2.82539370e+00  6.40121700e-01  1.61277800e-01  1.87311370e+01  2.82539370e+00
  6.40121700e-01  1.61277800e-01  1.87311370e+01  2.82539370e+00  6.40121700e-01
  1.61277800e-01  3.04752490e+03  4.57369510e+02  1.03948690e+02  2.92101550e+01
  9.28666300e+00  3.16392700e+00  7.86827240e+00  1.88128850e+00  5.44249300e-01
  7.86827240e+00  1.88128850e+00  5.44249300e-01  1.68714400e-01  1.68714400e-01
  8.00000000e-01  4.38000000e-02  4.38000000e-02  1.87311370e+01  2.82539370e+00
  6.40121700e-01  1.61277800e-01  1.87311370e+01  2.82539370e+00  6.40121700e-01
  1.61277800e-01  1.87311370e+01  2.82539370e+00  6.40121700e-01  1.61277800e-01
Contraction coefficients                   R   N=         390
  1.83470016e-03  1.40373012e-02  6.88426061e-02  2.32184421e-01  4.67941342e-01
  3.62312032e-01 -1.19332409e-01 -1.60854212e-01  1.14345648e+00  6.89990956e-02
  3.16423980e-01  7.44308252e-01  1.00000000e+00  1.00000000e+00  1.00000000e+00
  1.00000000e+00  1.00000000e+00  1.83470016e-03  1.40373012e-02  6.88426061e-02
  2.32184421e-01  4.67941342e-01  3.62312032e-01 -1.19332409e-01 -1.60854212e-01
  1.14345648e+00  6.89990956e-02  3.16423980e-01  7.44308252e-01  1.00000000e+00
  1.00000000e+00  1.00000000e+00  1.00000000e+00  1.00000000e+00  1.83470016e-03
  1.40373012e-02  6.88426061e-02  2.32184421e-01  4.67941342e-01  3.62312032e-01
 -1.19332409e-01 -1.60854212e-01  1.14345648e+00  6.89990956e-02  3.16423980e-01
  7.44308252e-01  1.00000000e+00  1.00000000e+00  1.00000000e+00  1.00000000e+00
  1.00000000e+00  3.34945995e-02  2.34726947e-01  8.13757318e-01  1.00000000e+00
  3.34945995e-02  2.34726947e-01  8.13757318e-01  1.00000000e+00  1.83479944e-03
  1.39949958e-02  6.85869792e-02  2.32240930e-01  4.69069858e-01  3.60454891e-01
 -1.14961023e-01 -1.69118034e-01  1.14585223e+00  6.75800232e-02  3.23907111e-01
  7.40895255e-01  1.00000000e+00  1.00000000e+00  1.00000000e+00  1.00000000e+00
  1.00000000e+00  1.83470016e-03  1.40373012e-02  6.88426061e-02  2.32184421e-01
  4.67941342e-01  3.62312032e-01 -1.19332409e-01 -1.60854212e-01  1.14345648e+00
  6.89990956e-02  3.16423980e-01  7.44308252e-01  1.00000000e+00  1.00000000e+00
  1.00000000e+00  1.00000000e+00  1.00000000e+00  1.83470016e-03  1.40373012e-02
  6.88426061e-02  2.32184421e-01  4.67941342e-01  3.62312032e-01 -1.19332409e-01
 -1.60854212e-01  1.14345648e+00  6.89990956e-02  3.16423980e-01  7.44308252e-01
  1.00000000e+00  1.00000000e+00  1.00000000e+00  1.00000000e+00  1.00000000e+00
  1.83470016e-03  1.40373012e-02  6.88426061e-02  2.32184421e-01  4.67941342e-01
  3.62312032e-01 -1.19332409e-01 -1.60854212e-01  1.14345648e+00  6.89990956e-02
  3.16423980e-01  7.44308252e-01  1.00000000e+00  1.00000000e+00  1.00000000e+00
  1.00000000e+00  1.00000000e+00  1.83470016e-03  1.40373012e-02  6.88426061e-02
  2.32184421e-01  4.67941342e-01  3.62312032e-01 -1.19332409e-01 -1.60854212e-01
  1.14345648e+00  6.89990956e-02  3.16423980e-01  7.44308252e-01  1.00000000e+00
  1.00000000e+00  1.00000000e+00  1.00000000e+00  1.00000000e+00  1.83470016e-03
  1.40373012e-02  6.88426061e-02  2.32184421e-01  4.67941342e-01  3.62312032e-01
 -1.19332409e-01 -1.60854212e-01  1.14345648e+00  6.89990956e-02  3.16423980e-01
  7.44308252e-01  1.00000000e+00  1.00000000e+00  1.00000000e+00  1.00000000e+00
  1.00000000e+00  3.34945995e-02  2.34726947e-01  8.13757318e-01  1.00000000e+00
  3.34945995e-02  2.34726947e-01  8.13757318e-01  1.00000000e+00  3.34945995e-02
  2.34726947e-01  8.13757318e-01  1.00000000e+00  3.34945995e-02  2.34726947e-01
  8.13757318e-01  1.00000000e+00  3.34945995e-02  2.34726947e-01  8.13757318e-01
  1.00000000e+00  1.83470016e-03  1.40373012e-02  6.88426061e-02  2.32184421e-01
  4.67941342e-01  3.62312032e-01 -1.19332409e-01 -1.60854212e-01  1.14345648e+00
  6.89990956e-02  3.16423980e-01  7.44308252e-01  1.00000000e+00  1.00000000e+00
  1.00000000e+00  1.00000000e+00  1.00000000e+00  3.34945995e-02  2.34726947e-01
  8.13757318e-01  1.00000000e+00  3.34945995e-02  2.34726947e-01  8.13757318e-01
  1.00000000e+00  3.34945995e-02  2.34726947e-01  8.13757318e-01  1.00000000e+00
  3.34945995e-02  2.34726947e-01  8.13757318e-01  1.00000000e+00  1.83470016e-03
  1.40373012e-02  6.88426061e-02  2.32184421e-01  4.67941342e-01  3.62312032e-01
 -1.19332409e-01 -1.60854212e-01  1.14345648e+00  6.89990956e-02  3.16423980e-01
  7.44308252e-01  1.00000000e+00  1.00000000e+00  1.00000000e+00  1.00000000e+00
  1.00000000e+00  1.83470016e-03  1.40373012e-02  6.88426061e-02  2.32184421e-01
  4.67941342e-01  3.62312032e-01 -1.19332409e-01 -1.60854212e-01  1.14345648e+00
  6.89990956e-02  3.16423980e-01  7.44308252e-01  1.00000000e+00  1.00000000e+00
  1.00000000e+00  1.00000000e+00  1.00000000e+00  3.34945995e-02  2.34726947e-01
  8.13757318e-01  1.00000000e+00  3.34945995e-02  2.34726947e-01  8.13757318e-01
  1.00000000e+00  1.83470016e-03  1.40373012e-02  6.88426061e-02  2.32184421e-01
  4.67941342e-01  3.62312032e-01 -1.19332409e-01 -1.60854212e-01  1.14345648e+00
  6.89990956e-02  3.16423980e-01  7.44308252e-01  1.00000000e+00  1.00000000e+00
  1.00000000e+00  1.00000000e+00  1.00000000e+00  1.83470016e-03  1.40373012e-02
  6.88426061e-02  2.32184421e-01  4.67941342e-01  3.62312032e-01 -1.19332409e-01
 -1.60854212e-01  1.14345648e+00  6.89990956e-02  3.16423980e-01  7.44308252e-01
  1.00000000e+00  1.00000000e+00  1.00000000e+00  1.00000000e+00  1.00000000e+00
  1.83470016e-03  1.40373012e-02  6.88426061e-02  2.32184421e-01  4.67941342e-01
  3.62312032e-01 -1.19332409e-01 -1.60854212e-01  1.14345648e+00  6.89990956e-02
  3.16423980e-01  7.44308252e-01  1.00000000e+00  1.00000000e+00  1.00000000e+00
  1.00000000e+00  1.00000000e+00  1.83470016e-03  1.40373012e-02  6.88426061e-02
  2.32184421e-01  4.67941342e-01  3.62312032e-01 -1.19332409e-01 -1.60854212e-01
  1.14345648e+00  6.89990956e-02  3.16423980e-01  7.44308252e-01  1.00000000e+00
  1.00000000e+00  1.00000000e+00  1.00000000e+00  1.00000000e+00  1.83470016e-03
  1.40373012e-02  6.88426061e-02  2.32184421e-01  4.67941342e-01  3.62312032e-01
 -1.19332409e-01 -1.60854212e-01  1.14345648e+00  6.89990956e-02  3.16423980e-01
  7.44308252e-01  1.00000000e+00  1.00000000e+00  1.00000000e+00  1.00000000e+00
  1.00000000e+00  3.34945995e-02  2.34726947e-01  8.13757318e-01  1.00000000e+00
  3.34945995e-02  2.34726947e-01  8.13757318e-01  1.00000000e+00  3.34945995e-02
  2.34726947e-01  8.13757318e-01  1.00000000e+00  3.34945995e-02  2.34726947e-01
  8.13757318e-01  1.00000000e+00  3.34945995e-02  2.34726947e-01  8.13757318e-01
  1.00000000e+00  1.83470016e-03  1.40373012e-02  6.88426061e-02  2.32184421e-01
  4.67941342e-01  3.62312032e-01 -1.19332409e-01 -1.60854212e-01  1.14345648e+00
  6.89990956e-02  3.16423980e-01  7.44308252e-01  1.00000000e+00  1.00000000e+00
  1.00000000e+00  1.00000000e+00  1.00000000e+00  3.34945995e-02  2.34726947e-01
  8.13757318e-01  1.00000000e+00  3.34945995e-02  2.34726947e-01  8.13757318e-01
  1.00000000e+00  3.34945995e-02  2.34726947e-01  8.13757318e-01  1.00000000e+00
Coordinates of each shell                  R   N=         558
  5.33109572e+00  2.48575843e-01 -2.75368992e+00  5.33109572e+00  2.48575843e-01
 -2.75368992e+00  5.33109572e+00  2.48575843e-01 -2.75368992e+00  5.33109572e+00
  2.48575843e-01 -2.75368992e+00  5.33109572e+00  2.48575843e-01 -2.75368992e+00
  5.33109572e+00  2.48575843e-01 -2.75368992e+00  5.33109572e+00  2.48575843e-01
 -2.75368992e+00  5.33109572e+00  2.48575843e-01 -2.75368992e+00  3.18787474e+00
 -1.11713829e+00 -1.42987499e+00  3.18787474e+00 -1.11713829e+00 -1.42987499e+00
  3.18787474e+00 -1.11713829e+00 -1.42987499e+00  3.18787474e+00 -1.11713829e+00
 -1.42987499e+00  3.18787474e+00 -1.11713829e+00 -1.42987499e+00  3.18787474e+00
 -1.11713829e+00 -1.42987499e+00  3.18787474e+00 -1.11713829e+00 -1.42987499e+00
  3.18787474e+00 -1.11713829e+00 -1.42987499e+00  8.43393620e-01  5.60142204e-01
 -8.91281907e-01  8.43393620e-01  5.60142204e-01 -8.91281907e-01  8.43393620e-01
  5.60142204e-01 -8.91281907e-01  8.43393620e-01  5.60142204e-01 -8.91281907e-01
  8.43393620e-01  5.60142204e-01 -8.91281907e-01  8.43393620e-01  5.60142204e-01
 -8.91281907e-01  8.43393620e-01  5.60142204e-01 -8.91281907e-01  8.43393620e-01
  5.60142204e-01 -8.91281907e-01  3.85985179e+00 -1.90006054e+00  3.70190944e-01
  3.85985179e+00 -1.90006054e+00  3.70190944e-01  2.62962857e+00 -2.71764996e+00
 -2.61501682e+00  2.62962857e+00 -2.71764996e+00 -2.61501682e+00 -1.17995188e+00
 -8.88538465e-01  4.03821462e-01 -1.17995188e+00 -8.88538465e-01  4.03821462e-01
 -1.17995188e+00 -8.88538465e-01  4.03821462e-01 -1.17995188e+00 -8.88538465e-01
  4.03821462e-01 -1.17995188e+00 -8.88538465e-01  4.03821462e-01 -1.17995188e+00
 -8.88538465e-01  4.03821462e-01 -1.17995188e+00 -8.88538465e-01  4.03821462e-01
 -1.17995188e+00 -8.88538465e-01  4.03821462e-01  7.56833583e+00  8.68737314e-01
 -1.47656968e+00  7.56833583e+00  8.68737314e-01 -1.47656968e+00  7.56833583e+00
  8.68737314e-01 -1.47656968e+00  7.56833583e+00  8.68737314e-01 -1.47656968e+00
  7.56833583e+00  8.68737314e-01 -1.47656968e+00  7.56833583e+00  8.68737314e-01
 -1.47656968e+00  7.56833583e+00  8.68737314e-01 -1.47656968e+00  7.56833583e+00
  8.68737314e-01 -1.47656968e+00  9.54456267e+00  2.11427782e+00 -2.71138227e+00
  9.54456267e+00  2.11427782e+00 -2.71138227e+00  9.54456267e+00  2.11427782e+00
 -2.71138227e+00  9.54456267e+00  2.11427782e+00 -2.71138227e+00  9.54456267e+00
  2.11427782e+00 -2.71138227e+00  9.54456267e+00  2.11427782e+00 -2.71138227e+00
  9.54456267e+00  2.11427782e+00 -2.71138227e+00  9.54456267e+00  2.11427782e+00
 -2.71138227e+00  9.31485568e+00  2.76496511e+00 -5.25966297e+00  9.31485568e+00
  2.76496511e+00 -5.25966297e+00  9.31485568e+00  2.76496511e+00 -5.25966297e+00
  9.31485568e+00  2.76496511e+00 -5.25966297e+00  9.31485568e+00  2.76496511e+00
 -5.25966297e+00  9.31485568e+00  2.76496511e+00 -5.25966297e+00  9.31485568e+00
  2.76496511e+00 -5.25966297e+00  9.31485568e+00  2.76496511e+00 -5.25966297e+00
  7.09898041e+00  2.15027629e+00 -6.56165799e+00  7.09898041e+00  2.15027629e+00
 -6.56165799e+00  7.09898041e+00  2.15027629e+00 -6.56165799e+00  7.09898041e+00
  2.15027629e+00 -6.56165799e+00  7.09898041e+00  2.15027629e+00 -6.56165799e+00
  7.09898041e+00  2.15027629e+00 -6.56165799e+00  7.09898041e+00  2.15027629e+00
 -6.56165799e+00  7.09898041e+00  2.15027629e+00 -6.56165799e+00  5.13458783e+00
  9.00053466e-01 -5.31861984e+00  5.13458783e+00  9.00053466e-01 -5.31861984e+00
  5.13458783e+00  9.00053466e-01 -5.31861984e+00  5.13458783e+00  9.00053466e-01
 -5.31861984e+00  5.13458783e+00  9.00053466e-01 -5.31861984e+00  5.13458783e+00
  9.00053466e-01 -5.31861984e+00  5.13458783e+00  9.00053466e-01 -5.31861984e+00
  5.13458783e+00  9.00053466e-01 -5.31861984e+00  7.76777023e+00  3.67473183e-01
  5.07634309e-01  7.76777023e+00  3.67473183e-01  5.07634309e-01  3.42748133e+00
  4.12711684e-01 -6.35752932e+00  3.42748133e+00  4.12711684e-01 -6.35752932e+00
  1.12628792e+01  2.57098155e+00 -1.68120335e+00  1.12628792e+01  2.57098155e+00
 -1.68120335e+00  1.08492189e+01  3.73096206e+00 -6.22529193e+00  1.08492189e+01
  3.73096206e+00 -6.22529193e+00  6.90472725e+00  2.63311926e+00 -8.54954887e+00
  6.90472725e+00  2.63311926e+00 -8.54954887e+00  1.62956878e+00  2.85583329e+00
  7.03933598e-01  1.62956878e+00  2.85583329e+00  7.03933598e-01  1.62956878e+00
  2.85583329e+00  7.03933598e-01  1.62956878e+00  2.85583329e+00  7.03933598e-01
  1.62956878e+00  2.85583329e+00  7.03933598e-01  1.62956878e+00  2.85583329e+00
  7.03933598e-01  1.62956878e+00  2.85583329e+00  7.03933598e-01  1.62956878e+00
  2.85583329e+00  7.03933598e-01  1.36152550e-01  1.24117954e+00 -2.74482207e+00
  1.36152550e-01  1.24117954e+00 -2.74482207e+00  2.40431274e+00  2.22402542e+00
  2.51946599e+00  2.40431274e+00  2.22402542e+00  2.51946599e+00  5.67590115e-02