Generated by Psi4
     FORCE                           RHF                       TESTBAS
Number of atoms                            I               37
Charge                                     I                0
Multiplicity                               I                1
Number of electrons                        I              122
Number of alpha electrons                  I               61
Number of beta electrons                   I               61
Number of basis functions                  I              346
Number of independent functions            I              346
Atomic numbers                             I   N=          37
           6           6           6           1           1           7
           6           6           6           6           6           6
           1           1           1           1           1           1
           8           6           8           1           1           1
           1           1           6           6           1           1
           1           1           1           6           1           1
           1
Nuclear charges                            R   N=          37
  6.00000000e+00  6.00000000e+00  6.00000000e+00  1.00000000e+00  1.00000000e+00
  7.00000000e+00  6.00000000e+00  6.00000000e+00  6.00000000e+00  6.00000000e+00
  6.00000000e+00  6.00000000e+00  1.00000000e+00  1.00000000e+00  1.00000000e+00
  1.00000000e+00  1.00000000e+00  1.00000000e+00  8.00000000e+00  6.00000000e+00
  8.00000000e+00  1.00000000e+00  1.00000000e+00  1.00000000e+00  1.00000000e+00
  1.00000000e+00  6.00000000e+00  6.00000000e+00  1.00000000e+00  1.00000000e+00
  1.00000000e+00  1.00000000e+00  1.00000000e+00  6.00000000e+00  1.00000000e+00
  1.00000000e+00  1.00000000e+00
Current cartesian coordinates              R   N=         111
 -7.41245533e-01 -1.30767977e+00  1.03074818e+00 -2.75795554e+00 -2.40033284e+00
  2.73565012e+00 -5.31221336e+00 -9.40032488e-01  2.75509904e+00 -2.03945751e+00
 -2.48378792e+00  4.68370428e+00 -3.15538649e+00 -4.35057464e+00  2.15260778e+00
 -7.32318879e+00 -2.28546585e+00  4.12308896e+00  1.29184467e+00  7.04512971e-02
  2.01882015e+00  3.16345135e+00  1.10577377e+00  4.63543855e-01  3.05076575e+00
  7.70837076e-01 -2.16951170e+00  1.02916697e+00 -6.22115248e-01 -3.15659882e+00
 -8.47388224e-01 -1.64998791e+00 -1.60201861e+00 -5.05014187e+00  1.71500297e+00
  3.87113361e+00 -4.46572699e+00  1.62207578e+00  5.86367699e+00 -6.86332757e+00
  2.70767420e+00  3.78641765e+00 -3.63452423e+00  2.82487529e+00  2.84887809e+00
 -5.95367760e+00 -7.70934942e-01  7.92369138e-01  1.38613798e+00  3.15395383e-01
  4.05238093e+00  9.55874180e-01 -8.97799530e-01 -5.18764912e+00  5.19235753e+00
  2.47020044e+00  1.35340915e+00 -3.03575424e+00 -3.51205997e+00 -5.12457923e+00
 -2.85583594e+00 -3.04812170e+00 -2.49014668e+00 -4.74059484e+00 -4.64573309e+00
 -5.38109756e+00 -1.39394519e+00 -4.57278987e+00 -5.82321351e+00 -3.22067931e+00
 -1.74400506e+00 -6.19660815e+00 -6.84125787e+00 -2.51873943e+00  5.97580602e+00
 -7.58683050e+00 -4.04688491e+00  3.39008037e+00  5.03020124e+00  1.90202959e+00
 -3.89579106e+00  4.61213714e+00  4.73311301e+00 -4.43427350e+00  5.02828748e+00
  8.59959996e-01 -5.68919860e+00  6.90673401e+00  1.64985032e+00 -3.05472323e+00
  2.77434603e+00  5.05476501e+00 -5.33640360e+00  6.08508742e+00  5.46084372e+00
 -5.69908081e+00  4.66842343e+00  5.83235269e+00 -2.68211832e+00  5.45342083e+00
  2.81123328e+00  3.99908768e+00  7.18812256e+00  3.89834457e+00  4.25724035e+00
  5.62899769e+00  9.93532926e-01  4.98633410e+00  3.85501759e+00  3.87322723e+00
  4.79117881e+00
Integer atomic weights                     I   N=          37
          12          12          12           1           1          14
          12          12          12          12          12          12
           1           1           1           1           1           1
          15          12          15           1           1           1
           1           1          12          12           1           1
           1           1           1          12           1           1
           1
Real atomic weights                        R   N=          37
  1.20000000e+01  1.20000000e+01  1.20000000e+01  1.00782503e+00  1.00782503e+00
  1.40030740e+01  1.20000000e+01  1.20000000e+01  1.20000000e+01  1.20000000e+01
  1.20000000e+01  1.20000000e+01  1.00782503e+00  1.00782503e+00  1.00782503e+00
  1.00782503e+00  1.00782503e+00  1.00782503e+00  1.59949146e+01  1.20000000e+01
  1.59949146e+01  1.00782503e+00  1.00782503e+00  1.00782503e+00  1.00782503e+00
  1.00782503e+00  1.20000000e+01  1.20000000e+01  1.00782503e+00  1.00782503e+00
  1.00782503e+00  1.00782503e+00  1.00782503e+00  1.20000000e+01  1.00782503e+00
  1.00782503e+00  1.00782503e+00
Number of primitive shells                 I              356
Number of contracted shells                I              170
Pure/Cartesian d shells                    I                1
Pure/Cartesian f shells                    I                1
Highest angular momentum                   I                2
Largest degree of contraction              I                6
Shell types                                I   N=         170
           0           0           1           0           1           2
           0           1           0           0           1           0
           1           2           0           1           0           0
           1           0           1           2           0           1
           0           0           0           0           0           0
           1           0           1           2           0           1
           0           0           1           0           1           2
           0           1           0           0           1           0
           1           2           0           1           0           0
           1           0           1           2           0           1
           0           0           1           0           1           2
           0           1           0           0           1           0
           1           2           0           1           0           0
           1           0           1           2           0           1
           0           0           0           0           0           0
           0           0           0           0           0           0
           0           0           1           0           1           2
           0           1           0           0           1           0
           1           2           0           1           0           0
           1           0           1           2           0           1
           0           0           0           0           0           0
           0           0           0           0           0           0
           1           0           1           2           0           1
           0           0           1           0           1           2
           0           1           0           0           0           0
           0           0           0           0           0           0
           0           0           1           0           1           2
           0           1           0           0           0           0
           0           0
Number of primitives per shell             I   N=         170
           6           3           3           1           1           1
           1           1           6           3           3           1
           1           1           1           1           6           3
           3           1           1           1           1           1
           3           1           3           1           6           3
           3           1           1           1           1           1
           6           3           3           1           1           1
           1           1           6           3           3           1
           1           1           1           1           6           3
           3           1           1           1           1           1
           6           3           3           1           1           1
           1           1           6           3           3           1
           1           1           1           1           6           3
           3           1           1           1           1           1
           3           1           3           1           3           1
           3           1           3           1           3           1
           6           3           3           1           1           1
           1           1           6           3           3           1
           1           1           1           1           6           3
           3           1           1           1           1           1
           3           1           3           1           3           1
           3           1           3           1           6           3
           3           1           1           1           1           1
           6           3           3           1           1           1
           1           1           3           1           3           1
           3           1           3           1           3           1
           6           3           3           1           1           1
           1           1           3           1           3           1
           3           1
Shell to atom map                          I   N=         170
           1           1           1           1           1           1
           1           1           2           2           2           2
           2           2           2           2           3           3
           3           3           3           3           3           3
           4           4           5           5           6           6
           6           6           6           6           6           6
           7           7           7           7           7           7
           7           7           8           8           8           8
           8           8           8           8           9           9
           9           9           9           9           9           9
          10          10          10          10          10          10
          10          10          11          11          11          11
          11          11          11          11          12          12
          12          12          12          12          12          12
          13          13          14          14          15          15
          16          16          17          17          18          18
          19          19          19          19          19          19
          19          19          20          20          20          20
          20          20          20          20          21          21
          21          21          21          21          21          21
          22          22          23          23          24          24
          25          25          26          26          27          27
          27          27          27          27          27          27
          28          28          28          28          28          28
          28          28          29          29          30          30
          31          31          32          32          33          33
          34          34          34          34          34          34
          34          34          35          35          36          36
          37          37
Primitive exponents                        R   N=         356
  3.04752490e+03  4.57369510e+02  1.03948690e+02  2.92101550e+01  9.28666300e+00
  3.16392700e+00  7.86827240e+00  1.88128850e+00  5.44249300e-01  7.86827240e+00
  1.88128850e+00  5.44249300e-01  1.68714400e-01  1.68714400e-01  8.00000000e-01
  4.38000000e-02  4.38000000e-02  3.04752490e+03  4.57369510e+02  1.03948690e+02
  2.92101550e+01  9.28666300e+00  3.16392700e+00  7.86827240e+00  1.88128850e+00
  5.44249300e-01  7.86827240e+00  1.88128850e+00  5.44249300e-01  1.68714400e-01
  1.68714400e-01  8.00000000e-01  4.38000000e-02  4.38000000e-02  3.04752490e+03
  4.57369510e+02  1.03948690e+02  2.92101550e+01  9.28666300e+00  3.16392700e+00
  7.86827240e+00  1.88128850e+00  5.44249300e-01  7.86827240e+00  1.88128850e+00
  5.44249300e-01  1.68714400e-01  1.68714400e-01  8.00000000e-01  4.38000000e-02
  4.38000000e-02  1.87311370e+01  2.82539370e+00  6.40121700e-01  1.61277800e-01
  1.87311370e+01  2.82539370e+00  6.40121700e-01  1.61277800e-01  4.17351100e+03
  6.27457900e+02  1.42902100e+02  4.02343300e+01  1.28202100e+01  4.39043700e+00
  1.16263580e+01  2.71628000e+00  7.72218000e-01  1.16263580e+01  2.71628000e+00
  7.72218000e-01  2.12031300e-01  2.12031300e-01  8.00000000e-01  6.39000000e-02
  6.39000000e-02  3.04752490e+03  4.57369510e+02  1.03948690e+02  2.92101550e+01
  9.28666300e+00  3.16392700e+00  7.86827240e+00  1.88128850e+00  5.44249300e-01
  7.86827240e+00  1.88128850e+00  5.44249300e-01  1.68714400e-01  1.68714400e-01
  8.00000000e-01  4.38000000e-02  4.38000000e-02  3.04752490e+03  4.57369510e+02
  1.03948690e+02  2.92101550e+01  9.28666300e+00  3.16392700e+00  7.86827240e+00
  1.88128850e+00  5.44249300e-01  7.86827240e+00  1.88128850e+00  5.44249300e-01
  1.68714400e-01  1.68714400e-01  8.00000000e-01  4.38000000e-02  4.38000000e-02
  3.04752490e+03  4.57369510e+02  1.03948690e+02  2.92101550e+01  9.28666300e+00
  3.16392700e+00  7.86827240e+00  1.88128850e+00  5.44249300e-01  7.86827240e+00
  1.88128850e+00  5.44249300e-01  1.68714400e-01  1.68714400e-01  8.00000000e-01
  4.38000000e-02  4.38000000e-02  3.04752490e+03  4.57369510e+02  1.03948690e+02
  2.92101550e+01  9.28666300e+00  3.16392700e+00  7.86827240e+00  1.88128850e+00
  5.44249300e-01  7.86827240e+00  1.88128850e+00  5.44249300e-01  1.68714400e-01
  1.68714400e-01  8.00000000e-01  4.38000000e-02  4.38000000e-02  3.04752490e+03
  4.57369510e+02  1.03948690e+02  2.92101550e+01  9.28666300e+00  3.16392700e+00
  7.86827240e+00  1.88128850e+00  5.44249300e-01  7.86827240e+00  1.88128850e+00
  5.44249300e-01  1.68714400e-01  1.68714400e-01  8.00000000e-01  4.38000000e-02
  4.38000000e-02  3.04752490e+03  4.57369510e+02  1.03948690e+02  2.92101550e+01
  9.28666300e+00  3.16392700e+00  7.86827240e+00  1.88128850e+00  5.44249300e-01
  7.86827240e+00  1.88128850e+00  5.44249300e-01  1.68714400e-01  1.68714400e-01
  8.00000000e-01  4.38000000e-02  4.38000000e-02  1.87311370e+01  2.82539370e+00
  6.40121700e-01  1.61277800e-01  1.87311370e+01  2.82539370e+00  6.40121700e-01
  1.61277800e-01  1.87311370e+01  2.82539370e+00  6.40121700e-01  1.61277800e-01
  1.87311370e+01  2.82539370e+00  6.40121700e-01  1.61277800e-01  1.87311370e+01
  2.82539370e+00  6.40121700e-01  1.61277800e-01  1.87311370e+01  2.82539370e+00
  6.40121700e-01  1.61277800e-01  5.48467170e+03  8.25234950e+02  1.88046960e+02
  5.29645000e+01  1.68975700e+01  5.79963530e+00  1.55396160e+01  3.59993360e+00
  1.01376180e+00  1.55396160e+01  3.59993360e+00  1.01376180e+00  2.70005800e-01
  2.70005800e-01  8.00000000e-01  8.45000000e-02  8.45000000e-02  3.04752490e+03
  4.57369510e+02  1.03948690e+02  2.92101550e+01  9.28666300e+00  3.16392700e+00
  7.86827240e+00  1.88128850e+00  5.44249300e-01  7.86827240e+00  1.88128850e+00
  5.44249300e-01  1.68714400e-01  1.68714400e-01  8.00000000e-01  4.38000000e-02
  4.38000000e-02  5.48467170e+03  8.25234950e+02  1.88046960e+02  5.29645000e+01
  1.68975700e+01  5.79963530e+00  1.55396160e+01  3.59993360e+00  1.01376180e+00
  1.55396160e+01  3.59993360e+00  1.01376180e+00  2.70005800e-01  2.70005800e-01
  8.00000000e-01  8.45000000e-02  8.45000000e-02  1.87311370e+01  2.82539370e+00
  6.40121700e-01  1.61277800e-01  1.87311370e+01  2.82539370e+00  6.40121700e-01
  1.61277800e-01  1.87311370e+01  2.82539370e+00  6.40121700e-01  1.61277800e-01
  1.87311370e+01  2.82539370e+00  6.40121700e-01  1.61277800e-01  1.87311370e+01
  2.82539370e+00  6.40121700e-01  1.61277800e-01  3.04752490e+03  4.57369510e+02
  1.03948690e+02  2.92101550e+01  9.28666300e+00  3.16392700e+00  7.86827240e+00
  1.88128850e+00  5.44249300e-01  7.86827240e+00  1.88128850e+00  5.44249300e-01
  1.68714400e-01  1.68714400e-01  8.00000000e-01  4.38000000e-02  4.38000000e-02
  3.04752490e+03  4.57369510e+02  1.03948690e+02  2.92101550e+01  9.28666300e+00
  3.16392700e+00  7.86827240e+00  1.88128850e+00  5.44249300e-01  7.86827240e+00
  1.88128850e+00  5.44249300e-01  1.68714400e-01  1.68714400e-01  8.00000000e-01
  4.38000000e-02  4.38000000e-02  1.87311370e+01  2.82539370e+00  6.40121700e-01
  1.61277800e-01  1.87311370e+01  2.82539370e+00  6.40121700e-01  1.61277800e-01
  1.87311370e+01  2.82539370e+00  6.40121700e-01  1.61277800e-01  1.87311370e+01
  2.82539370e+00  6.40121700e-01  1.61277800e-01  1.87311370e+01  2.82539370e+00
  6.40121700e-01  1.61277800e-01  3.04752490e+03  4.57369510e+02  1.03948690e+02
  2.92101550e+01  9.28666300e+00  3.16392700e+00  7.86827240e+00  1.88128850e+00
  5.44249300e-01  7.86827240e+00  1.88128850e+00  5.44249300e-01  1.68714400e-01
  1.68714400e-01  8.00000000e-01  4.38000000e-02  4.38000000e-02  1.87311370e+01
  2.82539370e+00  6.40121700e-01  1.61277800e-01  1.87311370e+01  2.82539370e+00
  6.40121700e-01  1.61277800e-01  1.87311370e+01  2.82539370e+00  6.40121700e-01
  1.61277800e-01
Contraction coefficients                   R   N=         356
  1.83470016e-03  1.40373012e-02  6.88426061e-02  2.32184421e-01  4.67941342e-01
  3.62312032e-01 -1.19332409e-01 -1.60854212e-01  1.14345648e+00  6.89990956e-02
  3.16423980e-01  7.44308252e-01  1.00000000e+00  1.00000000e+00  1.00000000e+00
  1.00000000e+00  1.00000000e+00  1.83470016e-03  1.40373012e-02  6.88426061e-02
  2.32184421e-01  4.67941342e-01  3.62312032e-01 -1.19332409e-01 -1.60854212e-01
  1.14345648e+00  6.89990956e-02  3.16423980e-01  7.44308252e-01  1.00000000e+00
  1.00000000e+00  1.00000000e+00  1.00000000e+00  1.00000000e+00  1.83470016e-03
  1.40373012e-02  6.88426061e-02  2.32184421e-01  4.67941342e-01  3.62312032e-01
 -1.19332409e-01 -1.60854212e-01  1.14345648e+00  6.89990956e-02  3.16423980e-01
  7.44308252e-01  1.00000000e+00  1.00000000e+00  1.00000000e+00  1.00000000e+00
  1.00000000e+00  3.34945995e-02  2.34726947e-01  8.13757318e-01  1.00000000e+00
  3.34945995e-02  2.34726947e-01  8.13757318e-01  1.00000000e+00  1.83479944e-03
  1.39949958e-02  6.85869792e-02  2.32240930e-01  4.69069858e-01  3.60454891e-01
 -1.14961023e-01 -1.69118034e-01  1.14585223e+00  6.75800232e-02  3.23907111e-01
  7.40895255e-01  1.00000000e+00  1.00000000e+00  1.00000000e+00  1.00000000e+00
  1.00000000e+00  1.83470016e-03  1.40373012e-02  6.88426061e-02  2.32184421e-01
  4.67941342e-01  3.62312032e-01 -1.19332409e-01 -1.60854212e-01  1.14345648e+00
  6.89990956e-02  3.16423980e-01  7.44308252e-01  1.00000000e+00  1.00000000e+00
  1.00000000e+00  1.00000000e+00  1.00000000e+00  1.83470016e-03  1.40373012e-02
  6.88426061e-02  2.32184421e-01  4.67941342e-01  3.62312032e-01 -1.19332409e-01
 -1.60854212e-01  1.14345648e+00  6.89990956e-02  3.16423980e-01  7.44308252e-01
  1.00000000e+00  1.00000000e+00  1.00000000e+00  1.00000000e+00  1.00000000e+00
  1.83470016e-03  1.40373012e-02  6.88426061e-02  2.32184421e-01  4.67941342e-01
  3.62312032e-01 -1.19332409e-01 -1.60854212e-01  1.14345648e+00  6.89990956e-02
  3.16423980e-01  7.44308252e-01  1.00000000e+00  1.00000000e+00  1.00000000e+00
  1.00000000e+00  1.00000000e+00  1.83470016e-03  1.40373012e-02  6.88426061e-02
  2.32184421e-01  4.67941342e-01  3.62312032e-01 -1.19332409e-01 -1.60854212e-01
  1.14345648e+00  6.89990956e-02  3.16423980e-01  7.44308252e-01  1.00000000e+00
  1.00000000e+00  1.00000000e+00  1.00000000e+00  1.00000000e+00  1.83470016e-03
  1.40373012e-02  6.88426061e-02  2.32184421e-01  4.67941342e-01  3.62312032e-01
 -1.19332409e-01 -1.60854212e-01  1.14345648e+00  6.89990956e-02  3.16423980e-01
  7.44308252e-01  1.00000000e+00  1.00000000e+00  1.00000000e+00  1.00000000e+00
  1.00000000e+00  1.83470016e-03  1.40373012e-02  6.88426061e-02  2.32184421e-01
  4.67941342e-01  3.62312032e-01 -1.19332409e-01 -1.60854212e-01  1.14345648e+00
  6.89990956e-02  3.16423980e-01  7.44308252e-01  1.00000000e+00  1.00000000e+00
  1.00000000e+00  1.00000000e+00  1.00000000e+00  3.34945995e-02  2.34726947e-01
  8.13757318e-01  1.00000000e+00  3.34945995e-02  2.34726947e-01  8.13757318e-01
  1.00000000e+00  3.34945995e-02  2.34726947e-01  8.13757318e-01  1.00000000e+00
  3.34945995e-02  2.34726947e-01  8.13757318e-01  1.00000000e+00  3.34945995e-02
  2.34726947e-01  8.13757318e-01  1.00000000e+00  3.34945995e-02  2.34726947e-01
  8.13757318e-01  1.00000000e+00  1.83109981e-03  1.39500985e-02  6.84450927e-02
  2.32714275e-01  4.70192950e-01  3.58520862e-01 -1.10777504e-01 -1.48026305e-01
  1.13076704e+00  7.08742995e-02  3.39752798e-01  7.27158595e-01  1.00000000e+00
  1.00000000e+00  1.00000000e+00  1.00000000e+00  1.00000000e+00  1.83470016e-03
  1.40373012e-02  6.88426061e-02  2.32184421e-01  4.67941342e-01  3.62312032e-01
 -1.19332409e-01 -1.60854212e-01  1.14345648e+00  6.89990956e-02  3.16423980e-01
  7.44308252e-01  1.00000000e+00  1.00000000e+00  1.00000000e+00  1.00000000e+00
  1.00000000e+00  1.83109981e-03  1.39500985e-02  6.84450927e-02  2.32714275e-01
  4.70192950e-01  3.58520862e-01 -1.10777504e-01 -1.48026305e-01  1.13076704e+00
  7.08742995e-02  3.39752798e-01  7.27158595e-01  1.00000000e+00  1.00000000e+00
  1.00000000e+00  1.00000000e+00  1.00000000e+00  3.34945995e-02  2.34726947e-01
  8.13757318e-01  1.00000000e+00  3.34945995e-02  2.34726947e-01  8.13757318e-01
  1.00000000e+00  3.34945995e-02  2.34726947e-01  8.13757318e-01  1.00000000e+00
  3.34945995e-02  2.34726947e-01  8.13757318e-01  1.00000000e+00  3.34945995e-02
  2.34726947e-01  8.13757318e-01  1.00000000e+00  1.83470016e-03  1.40373012e-02
  6.88426061e-02  2.32184421e-01  4.67941342e-01  3.62312032e-01 -1.19332409e-01
 -1.60854212e-01  1.14345648e+00  6.89990956e-02  3.16423980e-01  7.44308252e-01
  1.00000000e+00  1.00000000e+00  1.00000000e+00  1.00000000e+00  1.00000000e+00
  1.83470016e-03  1.40373012e-02  6.88426061e-02  2.32184421e-01  4.67941342e-01
  3.62312032e-01 -1.19332409e-01 -1.60854212e-01  1.14345648e+00  6.89990956e-02
  3.16423980e-01  7.44308252e-01  1.00000000e+00  1.00000000e+00  1.00000000e+00
  1.00000000e+00  1.00000000e+00  3.34945995e-02  2.34726947e-01  8.13757318e-01
  1.00000000e+00  3.34945995e-02  2.34726947e-01  8.13757318e-01  1.00000000e+00
  3.34945995e-02  2.34726947e-01  8.13757318e-01  1.00000000e+00  3.34945995e-02
  2.34726947e-01  8.13757318e-01  1.00000000e+00  3.34945995e-02  2.34726947e-01
  8.13757318e-01  1.00000000e+00  1.83470016e-03  1.40373012e-02  6.88426061e-02
  2.32184421e-01  4.67941342e-01  3.62312032e-01 -1.19332409e-01 -1.60854212e-01
  1.14345648e+00  6.89990956e-02  3.16423980e-01  7.44308252e-01  1.00000000e+00
  1.00000000e+00  1.00000000e+00  1.00000000e+00  1.00000000e+00  3.34945995e-02
  2.34726947e-01  8.13757318e-01  1.00000000e+00  3.34945995e-02  2.34726947e-01
  8.13757318e-01  1.00000000e+00  3.34945995e-02  2.34726947e-01  8.13757318e-01
  1.00000000e+00
Coordinates of each shell                  R   N=         510
 -7.41245533e-01 -1.30767977e+00  1.03074818e+00 -7.41245533e-01 -1.30767977e+00
  1.03074818e+00 -7.41245533e-01 -1.30767977e+00  1.03074818e+00 -7.41245533e-01
 -1.30767977e+00  1.03074818e+00 -7.41245533e-01 -1.30767977e+00  1.03074818e+00
 -7.41245533e-01 -1.30767977e+00  1.03074818e+00 -7.41245533e-01 -1.30767977e+00
  1.03074818e+00 -7.41245533e-01 -1.30767977e+00  1.03074818e+00 -2.75795554e+00
 -2.40033284e+00  2.73565012e+00 -2.75795554e+00 -2.40033284e+00  2.73565012e+00
 -2.75795554e+00 -2.40033284e+00  2.73565012e+00 -2.75795554e+00 -2.40033284e+00
  2.73565012e+00 -2.75795554e+00 -2.40033284e+00  2.73565012e+00 -2.75795554e+00
 -2.40033284e+00  2.73565012e+00 -2.75795554e+00 -2.40033284e+00  2.73565012e+00
 -2.75795554e+00 -2.40033284e+00  2.73565012e+00 -5.31221336e+00 -9.40032488e-01
  2.75509904e+00 -5.31221336e+00 -9.40032488e-01  2.75509904e+00 -5.31221336e+00
 -9.40032488e-01  2.75509904e+00 -5.31221336e+00 -9.40032488e-01  2.75509904e+00
 -5.31221336e+00 -9.40032488e-01  2.75509904e+00 -5.31221336e+00 -9.40032488e-01
  2.75509904e+00 -5.31221336e+00 -9.40032488e-01  2.75509904e+00 -5.31221336e+00
 -9.40032488e-01  2.75509904e+00 -2.03945751e+00 -2.48378792e+00  4.68370428e+00
 -2.03945751e+00 -2.48378792e+00  4.68370428e+00 -3.15538649e+00 -4.35057464e+00
  2.15260778e+00 -3.15538649e+00 -4.35057464e+00  2.15260778e+00 -7.32318879e+00
 -2.28546585e+00  4.12308896e+00 -7.32318879e+00 -2.28546585e+00  4.12308896e+00
 -7.32318879e+00 -2.28546585e+00  4.12308896e+00 -7.32318879e+00 -2.28546585e+00
  4.12308896e+00 -7.32318879e+00 -2.28546585e+00  4.12308896e+00 -7.32318879e+00
 -2.28546585e+00  4.12308896e+00 -7.32318879e+00 -2.28546585e+00  4.12308896e+00
 -7.32318879e+00 -2.28546585e+00  4.12308896e+00  1.29184467e+00  7.04512971e-02
  2.01882015e+00  1.29184467e+00  7.04512971e-02  2.01882015e+00  1.29184467e+00
  7.04512971e-02  2.01882015e+00  1.29184467e+00  7.04512971e-02  2.01882015e+00
  1.29184467e+00  7.04512971e-02  2.01882015e+00  1.29184467e+00  7.04512971e-02
  2.01882015e+00  1.29184467e+00  7.04512971e-02  2.01882015e+00  1.29184467e+00
  7.04512971e-02  2.01882015e+00  3.16345135e+00  1.10577377e+00  4.63543855e-01
  3.16345135e+00  1.10577377e+00  4.63543855e-01  3.16345135e+00  1.10577377e+00
  4.63543855e-01  3.16345135e+00  1.10577377e+00  4.63543855e-01  3.16345135e+00
  1.10577377e+00  4.63543855e-01  3.16345135e+00  1.10577377e+00  4.63543855e-01
  3.16345135e+00  1.10577377e+00  4.63543855e-01  3.16345135e+00  1.10577377e+00
  4.63543855e-01  3.05076575e+00  7.70837076e-01 -2.16951170e+00  3.05076575e+00
  7.70837076e-01 -2.16951170e+00  3.05076575e+00  7.70837076e-01 -2.16951170e+00
  3.05076575e+00  7.70837076e-01 -2.16951170e+00  3.05076575e+00  7.70837076e-01
 -2.16951170e+00  3.05076575e+00  7.70837076e-01 -2.16951170e+00  3.05076575e+00
  7.70837076e-01 -2.16951170e+00  3.05076575e+00  7.70837076e-01 -2.16951170e+00
  1.02916697e+00 -6.22115248e-01 -3.15659882e+00  1.02916697e+00 -6.22115248e-01
 -3.15659882e+00  1.02916697e+00 -6.22115248e-01 -3.15659882e+00  1.02916697e+00
 -6.22115248e-01 -3.15659882e+00  1.02916697e+00 -6.22115248e-01 -3.15659882e+00
  1.02916697e+00 -6.22115248e-01 -3.15659882e+00  1.02916697e+00 -6.22115248e-01
 -3.15659882e+00  1.02916697e+00 -6.22115248e-01 -3.15659882e+00 -8.47388224e-01
 -1.64998791e+00 -1.60201861e+00 -8.47388224e-01 -1.64998791e+00 -1.60201861e+00
 -8.47388224e-01 -1.64998791e+00 -1.60201861e+00 -8.47388224e-01 -1.64998791e+00
 -1.60201861e+00 -8.47388224e-01 -1.64998791e+00 -1.60201861e+00 -8.47388224e-01
 -1.64998791e+00 -1.60201861e+00 -8.47388224e-01 -1.64998791e+00 -1.60201861e+00
 -8.47388224e-01 -1.64998791e+00 -1.60201861e+00 -5.05014187e+00  1.71500297e+00
  3.87113361e+00 -5.05014187e+00  1.71500297e+00  3.87113361e+00 -5.05014187e+00
  1.71500297e+00  3.87113361e+00 -5.05014187e+00  1.71500297e+00  3.87113361e+00
 -5.05014187e+00  1.71500297e+00  3.87113361e+00 -5.05014187e+00  1.71500297e+00
  3.87113361e+00 -5.05014187e+00  1.71500297e+00  3.87113361e+00 -5.05014187e+00
  1.71500297e+00  3.87113361e+00 -4.46572699e+00  1.62207578e+00  5.86367699e+00
 -4.46572699e+00  1.62207578e+00  5.86367699e+00 -6.86332757e+00  2.70767420e+00
  3.78641765e+00 -6.86332757e+00  2.70767420e+00  3.78641765e+00 -3.63452423e+00
  2.82487529e+00  2.84887809e+00 -3.63452423e+00  2.82487529e+00  2.84887809e+00
 -5.95367760e+00 -7.70934942e-01  7.92369138e-01 -5.95367760e+00 -7.70934942e-01
  7.92369138e-01  1.38613798e+00  3.15395383e-01  4.05238093e+00  1.38613798e+00
  3.15395383e-01  4.05238093e+00  9.55874180e-01 -8.97799530e-01 -5.18764912e+00
  9.55874180e-01 -8.97799530e-01 -5.18764912e+00  5.19235753e+00  2.47020044e+00
  1.35340915e+00  5.19235753e+00  2.47020044e+00  1.35340915e+00  5.19235753e+00
  2.47020044e+00  1.35340915e+00  5.19235753e+00  2.47020044e+00  1.35340915e+00
  5.19235753e+00  2.47020044e+00  1.35340915e+00  5.19235753e+00  2.47020044e+00
  1.35340915e+00  5.19235753e+00  2.47020044e+00  1.35340915e+00  5.19235753e+00
  2.47020044e+00  1.35340915e+00 -3.03575424e+00 -3.51205997e+00 -5.12457923e+00
 -3.03575424e+00 -3.51205997e+00 -5.12457923e+00 -3.03575424e+00 -3.51205997e+00
 -5.12457923e+00 -3.03575424e+00 -3.51205997e+00 -5.12457923e+00 -3.03575424e+00
 -3.51205997e+00 -5.12457923e+00 -3.03575424e+00 -3.51205997e+00 -5.12457923e+00
 -3.03575424e+00 -3.51205997e+00 -5.12457923e+00 -3.03575424e+00 -3.51205997e+00
 -5.12457923e+00 -2.85583594e+00 -3.04812170e+00 -2.49014668e+00 -2.85583594e+00
 -3.04812170e+00 -2.49014668e+00 -2.85583594e+00 -3.04812170e+00 -2.49014668e+00
 -2.85583594e+00 -3.04812170e+00 -2.49014668e+00 -2.85583594e+00 -3.04812170e+00
 -2.49014668e+00 -2.85583594e+00 -3.04812170e+00 -2.49014668e+00 -2.85583594e+00
 -3.04812170e+00 -2.49014668e+00 -2.85583594e+00 -3.04812170e+00 -2.49014668e+00
 -4.74059484e+00 -4.64573309e+00 -5.38109756e+00 -4.74059484e+00 -4.64573309e+00
 -5.38109756e+00 -1.39394519e+00 -4.57278987e+00 -5.82321351e+00 -1.39394519e+00
 -4.57278987e+00 -5.82321351e+00 -3.22067931e+00 -1.74400506e+00 -6.19660815e+00
 -3.22067931e+00 -1.74400506e+00 -6.19660815e+00 -6.84125787e+00 -2.51873943e+00
  5.97580602e+00 -6.84125787e+00 -2.51873943e+00  5.97580602e+00 -7.58683050e+00
 -4.04688491e+00  3.39008037e+00 -7.58683050e+00 -4.04688491e+00  3.39008037e+00
  5.03020124e+00  1.90202959e+00 -3.89579106e+00  5.03020124e+00  1.90202959e+00
 -3.89579106e+00  5.03020124e+00  1.90202959e+00 -3.89579106e+00  5.03020124e+00
  1.90202959e+00 -3.89579106e+00  5.03020124e+00  1.90202959e+00 -3.89579106e+00
  5.03020124e+00  1.90202959e+00 -3.89579106e+00  5.03020124e+00  1.90202959e+00