Generated by Psi4
     FORCE                           RHF                       TESTBAS
Number of atoms                            I               37
Charge                                     I                0
Multiplicity                               I                1
Number of electrons                        I              118
Number of alpha electrons                  I               59
Number of beta electrons                   I               59
Number of basis functions                  I              346
Number of independent functions            I              346
Atomic numbers                             I   N=          37
           6           6           6           6           6           6
           6           6           6           6           6           6
           1           1           1           1           1           1
           1           1           6           1           1           1
           1           1           1           7           1           6
           6           1           1           1           1           1
           1
Nuclear charges                            R   N=          37
  6.00000000e+00  6.00000000e+00  6.00000000e+00  6.00000000e+00  6.00000000e+00
  6.00000000e+00  6.00000000e+00  6.00000000e+00  6.00000000e+00  6.00000000e+00
  6.00000000e+00  6.00000000e+00  1.00000000e+00  1.00000000e+00  1.00000000e+00
  1.00000000e+00  1.00000000e+00  1.00000000e+00  1.00000000e+00  1.00000000e+00
  6.00000000e+00  1.00000000e+00  1.00000000e+00  1.00000000e+00  1.00000000e+00
  1.00000000e+00  1.00000000e+00  7.00000000e+00  1.00000000e+00  6.00000000e+00
  6.00000000e+00  1.00000000e+00  1.00000000e+00  1.00000000e+00  1.00000000e+00
  1.00000000e+00  1.00000000e+00
Current cartesian coordinates              R   N=         111
 -4.83745608e+00 -4.44903613e-01  3.95218234e+00 -2.48934844e+00  3.79483067e-01
  5.54617972e+00 -2.37994527e-01 -5.18716524e-01  3.91046001e+00 -9.53474156e-02
  1.18987057e+00  1.52549572e+00  4.26263628e+00 -6.54968132e-01  3.86234777e-01
  2.42838673e+00  1.24350154e+00  1.51070180e-01  6.56400483e+00 -5.05306900e-01
 -9.09700612e-01  7.08319937e+00  1.55626961e+00 -2.47011021e+00 -3.63971414e+00
 -1.80665463e+00  1.65498332e+00 -2.44345161e+00  2.19609741e-01 -1.29836119e-01
  2.99032232e+00  3.30898300e+00 -1.41967380e+00  5.27906634e+00  3.47261848e+00
 -2.71615964e+00  7.95312093e+00 -2.00330806e+00 -6.83862862e-01  8.87242663e+00
  1.67752926e+00 -3.47252290e+00  3.92329338e+00 -2.27208190e+00  1.60378908e+00
  5.65739320e+00  5.09754893e+00 -3.91626108e+00  1.60067340e+00  4.80966079e+00
 -1.63089149e+00 -2.46912090e+00 -5.67690206e-01  7.38934820e+00 -2.43146734e+00
  2.41909030e+00  5.90388067e+00 -4.91267984e-01  3.14823028e+00  2.07859918e+00
 -1.28580998e+00 -3.03322648e+00  2.85367357e+00  1.54183227e+00 -6.26654578e-01
  4.95603108e+00 -1.74274323e+00 -4.41011612e+00  4.33539231e+00 -4.48041055e-02
 -3.95343654e+00  1.47413953e+00 -4.93130783e+00 -3.08324129e+00  6.73451142e-01
 -6.05416770e+00 -1.73737432e+00  5.02061259e+00 -6.01483999e+00  1.16093389e+00
  3.37495351e+00 -1.72530851e+00 -5.80688877e-01 -2.65466240e+00 -3.77456417e+00
  1.78759927e+00 -3.96862838e-01 -3.61823479e+00 -5.42472057e-01 -4.65881481e+00
 -5.82593198e+00 -2.43449485e+00 -4.52237534e+00 -2.60060732e+00 -8.37346844e-01
 -6.44336125e+00 -4.38396875e+00  1.38636003e+00 -4.74524084e+00 -5.13323121e+00
 -4.38361538e+00 -4.36693054e+00 -6.97751245e+00 -2.30662312e+00 -6.24446741e+00
 -7.07007012e+00 -2.06476957e+00 -2.90921895e+00 -6.83748251e-01 -2.19431681e+00
 -2.66525113e+00
Integer atomic weights                     I   N=          37
          12          12          12          12          12          12
          12          12          12          12          12          12
           1           1           1           1           1           1
           1           1          12           1           1           1
           1           1           1          14           1          12
          12           1           1           1           1           1
           1
Real atomic weights                        R   N=          37
  1.20000000e+01  1.20000000e+01  1.20000000e+01  1.20000000e+01  1.20000000e+01
  1.20000000e+01  1.20000000e+01  1.20000000e+01  1.20000000e+01  1.20000000e+01
  1.20000000e+01  1.20000000e+01  1.00782503e+00  1.00782503e+00  1.00782503e+00
  1.00782503e+00  1.00782503e+00  1.00782503e+00  1.00782503e+00  1.00782503e+00
  1.20000000e+01  1.00782503e+00  1.00782503e+00  1.00782503e+00  1.00782503e+00
  1.00782503e+00  1.00782503e+00  1.40030740e+01  1.00782503e+00  1.20000000e+01
  1.20000000e+01  1.00782503e+00  1.00782503e+00  1.00782503e+00  1.00782503e+00
  1.00782503e+00  1.00782503e+00
Number of primitive shells                 I              356
Number of contracted shells                I              170
Pure/Cartesian d shells                    I                1
Pure/Cartesian f shells                    I                1
Highest angular momentum                   I                2
Largest degree of contraction              I                6
Shell types                                I   N=         170
           0           0           1           0           1           2
           0           1           0           0           1           0
           1           2           0           1           0           0
           1           0           1           2           0           1
           0           0           1           0           1           2
           0           1           0           0           1           0
           1           2           0           1           0           0
           1           0           1           2           0           1
           0           0           1           0           1           2
           0           1           0           0           1           0
           1           2           0           1           0           0
           1           0           1           2           0           1
           0           0           1           0           1           2
           0           1           0           0           1           0
           1           2           0           1           0           0
           1           0           1           2           0           1
           0           0           0           0           0           0
           0           0           0           0           0           0
           0           0           0           0           0           0
           1           0           1           2           0           1
           0           0           0           0           0           0
           0           0           0           0           0           0
           0           0           1           0           1           2
           0           1           0           0           0           0
           1           0           1           2           0           1
           0           0           1           0           1           2
           0           1           0           0           0           0
           0           0           0           0           0           0
           0           0
Number of primitives per shell             I   N=         170
           6           3           3           1           1           1
           1           1           6           3           3           1
           1           1           1           1           6           3
           3           1           1           1           1           1
           6           3           3           1           1           1
           1           1           6           3           3           1
           1           1           1           1           6           3
           3           1           1           1           1           1
           6           3           3           1           1           1
           1           1           6           3           3           1
           1           1           1           1           6           3
           3           1           1           1           1           1
           6           3           3           1           1           1
           1           1           6           3           3           1
           1           1           1           1           6           3
           3           1           1           1           1           1
           3           1           3           1           3           1
           3           1           3           1           3           1
           3           1           3           1           6           3
           3           1           1           1           1           1
           3           1           3           1           3           1
           3           1           3           1           3           1
           6           3           3           1           1           1
           1           1           3           1           6           3
           3           1           1           1           1           1
           6           3           3           1           1           1
           1           1           3           1           3           1
           3           1           3           1           3           1
           3           1
Shell to atom map                          I   N=         170
           1           1           1           1           1           1
           1           1           2           2           2           2
           2           2           2           2           3           3
           3           3           3           3           3           3
           4           4           4           4           4           4
           4           4           5           5           5           5
           5           5           5           5           6           6
           6           6           6           6           6           6
           7           7           7           7           7           7
           7           7           8           8           8           8
           8           8           8           8           9           9
           9           9           9           9           9           9
          10          10          10          10          10          10
          10          10          11          11          11          11
          11          11          11          11          12          12
          12          12          12          12          12          12
          13          13          14          14          15          15
          16          16          17          17          18          18
          19          19          20          20          21          21
          21          21          21          21          21          21
          22          22          23          23          24          24
          25          25          26          26          27          27
          28          28          28          28          28          28
          28          28          29          29          30          30
          30          30          30          30          30          30
          31          31          31          31          31          31
          31          31          32          32          33          33
          34          34          35          35          36          36
          37          37
Primitive exponents                        R   N=         356
  3.04752490e+03  4.57369510e+02  1.03948690e+02  2.92101550e+01  9.28666300e+00
  3.16392700e+00  7.86827240e+00  1.88128850e+00  5.44249300e-01  7.86827240e+00
  1.88128850e+00  5.44249300e-01  1.68714400e-01  1.68714400e-01  8.00000000e-01
  4.38000000e-02  4.38000000e-02  3.04752490e+03  4.57369510e+02  1.03948690e+02
  2.92101550e+01  9.28666300e+00  3.16392700e+00  7.86827240e+00  1.88128850e+00
  5.44249300e-01  7.86827240e+00  1.88128850e+00  5.44249300e-01  1.68714400e-01
  1.68714400e-01  8.00000000e-01  4.38000000e-02  4.38000000e-02  3.04752490e+03
  4.57369510e+02  1.03948690e+02  2.92101550e+01  9.28666300e+00  3.16392700e+00
  7.86827240e+00  1.88128850e+00  5.44249300e-01  7.86827240e+00  1.88128850e+00
  5.44249300e-01  1.68714400e-01  1.68714400e-01  8.00000000e-01  4.38000000e-02
  4.38000000e-02  3.04752490e+03  4.57369510e+02  1.03948690e+02  2.92101550e+01
  9.28666300e+00  3.16392700e+00  7.86827240e+00  1.88128850e+00  5.44249300e-01
  7.86827240e+00  1.88128850e+00  5.44249300e-01  1.68714400e-01  1.68714400e-01
  8.00000000e-01  4.38000000e-02  4.38000000e-02  3.04752490e+03  4.57369510e+02
  1.03948690e+02  2.92101550e+01  9.28666300e+00  3.16392700e+00  7.86827240e+00
  1.88128850e+00  5.44249300e-01  7.86827240e+00  1.88128850e+00  5.44249300e-01
  1.68714400e-01  1.68714400e-01  8.00000000e-01  4.38000000e-02  4.38000000e-02
  3.04752490e+03  4.57369510e+02  1.03948690e+02  2.92101550e+01  9.28666300e+00
  3.16392700e+00  7.86827240e+00  1.88128850e+00  5.44249300e-01  7.86827240e+00
  1.88128850e+00  5.44249300e-01  1.68714400e-01  1.68714400e-01  8.00000000e-01
  4.38000000e-02  4.38000000e-02  3.04752490e+03  4.57369510e+02  1.03948690e+02
  2.92101550e+01  9.28666300e+00  3.16392700e+00  7.86827240e+00  1.88128850e+00
  5.44249300e-01  7.86827240e+00  1.88128850e+00  5.44249300e-01  1.68714400e-01
  1.68714400e-01  8.00000000e-01  4.38000000e-02  4.38000000e-02  3.04752490e+03
  4.57369510e+02  1.03948690e+02  2.92101550e+01  9.28666300e+00  3.16392700e+00
  7.86827240e+00  1.88128850e+00  5.44249300e-01  7.86827240e+00  1.88128850e+00
  5.44249300e-01  1.68714400e-01  1.68714400e-01  8.00000000e-01  4.38000000e-02
  4.38000000e-02  3.04752490e+03  4.57369510e+02  1.03948690e+02  2.92101550e+01
  9.28666300e+00  3.16392700e+00  7.86827240e+00  1.88128850e+00  5.44249300e-01
  7.86827240e+00  1.88128850e+00  5.44249300e-01  1.68714400e-01  1.68714400e-01
  8.00000000e-01  4.38000000e-02  4.38000000e-02  3.04752490e+03  4.57369510e+02
  1.03948690e+02  2.92101550e+01  9.28666300e+00  3.16392700e+00  7.86827240e+00
  1.88128850e+00  5.44249300e-01  7.86827240e+00  1.88128850e+00  5.44249300e-01
  1.68714400e-01  1.68714400e-01  8.00000000e-01  4.38000000e-02  4.38000000e-02
  3.04752490e+03  4.57369510e+02  1.03948690e+02  2.92101550e+01  9.28666300e+00
  3.16392700e+00  7.86827240e+00  1.88128850e+00  5.44249300e-01  7.86827240e+00
  1.88128850e+00  5.44249300e-01  1.68714400e-01  1.68714400e-01  8.00000000e-01
  4.38000000e-02  4.38000000e-02  3.04752490e+03  4.57369510e+02  1.03948690e+02
  2.92101550e+01  9.28666300e+00  3.16392700e+00  7.86827240e+00  1.88128850e+00
  5.44249300e-01  7.86827240e+00  1.88128850e+00  5.44249300e-01  1.68714400e-01
  1.68714400e-01  8.00000000e-01  4.38000000e-02  4.38000000e-02  1.87311370e+01
  2.82539370e+00  6.40121700e-01  1.61277800e-01  1.87311370e+01  2.82539370e+00
  6.40121700e-01  1.61277800e-01  1.87311370e+01  2.82539370e+00  6.40121700e-01
  1.61277800e-01  1.87311370e+01  2.82539370e+00  6.40121700e-01  1.61277800e-01
  1.87311370e+01  2.82539370e+00  6.40121700e-01  1.61277800e-01  1.87311370e+01
  2.82539370e+00  6.40121700e-01  1.61277800e-01  1.87311370e+01  2.82539370e+00
  6.40121700e-01  1.61277800e-01  1.87311370e+01  2.82539370e+00  6.40121700e-01
  1.61277800e-01  3.04752490e+03  4.57369510e+02  1.03948690e+02  2.92101550e+01
  9.28666300e+00  3.16392700e+00  7.86827240e+00  1.88128850e+00  5.44249300e-01
  7.86827240e+00  1.88128850e+00  5.44249300e-01  1.68714400e-01  1.68714400e-01
  8.00000000e-01  4.38000000e-02  4.38000000e-02  1.87311370e+01  2.82539370e+00
  6.40121700e-01  1.61277800e-01  1.87311370e+01  2.82539370e+00  6.40121700e-01
  1.61277800e-01  1.87311370e+01  2.82539370e+00  6.40121700e-01  1.61277800e-01
  1.87311370e+01  2.82539370e+00  6.40121700e-01  1.61277800e-01  1.87311370e+01
  2.82539370e+00  6.40121700e-01  1.61277800e-01  1.87311370e+01  2.82539370e+00
  6.40121700e-01  1.61277800e-01  4.17351100e+03  6.27457900e+02  1.42902100e+02
  4.02343300e+01  1.28202100e+01  4.39043700e+00  1.16263580e+01  2.71628000e+00
  7.72218000e-01  1.16263580e+01  2.71628000e+00  7.72218000e-01  2.12031300e-01
  2.12031300e-01  8.00000000e-01  6.39000000e-02  6.39000000e-02  1.87311370e+01
  2.82539370e+00  6.40121700e-01  1.61277800e-01  3.04752490e+03  4.57369510e+02
  1.03948690e+02  2.92101550e+01  9.28666300e+00  3.16392700e+00  7.86827240e+00
  1.88128850e+00  5.44249300e-01  7.86827240e+00  1.88128850e+00  5.44249300e-01
  1.68714400e-01  1.68714400e-01  8.00000000e-01  4.38000000e-02  4.38000000e-02
  3.04752490e+03  4.57369510e+02  1.03948690e+02  2.92101550e+01  9.28666300e+00
  3.16392700e+00  7.86827240e+00  1.88128850e+00  5.44249300e-01  7.86827240e+00
  1.88128850e+00  5.44249300e-01  1.68714400e-01  1.68714400e-01  8.00000000e-01
  4.38000000e-02  4.38000000e-02  1.87311370e+01  2.82539370e+00  6.40121700e-01
  1.61277800e-01  1.87311370e+01  2.82539370e+00  6.40121700e-01  1.61277800e-01
  1.87311370e+01  2.82539370e+00  6.40121700e-01  1.61277800e-01  1.87311370e+01
  2.82539370e+00  6.40121700e-01  1.61277800e-01  1.87311370e+01  2.82539370e+00
  6.40121700e-01  1.61277800e-01  1.87311370e+01  2.82539370e+00  6.40121700e-01
  1.61277800e-01
Contraction coefficients                   R   N=         356
  1.83470016e-03  1.40373012e-02  6.88426061e-02  2.32184421e-01  4.67941342e-01
  3.62312032e-01 -1.19332409e-01 -1.60854212e-01  1.14345648e+00  6.89990956e-02
  3.16423980e-01  7.44308252e-01  1.00000000e+00  1.00000000e+00  1.00000000e+00
  1.00000000e+00  1.00000000e+00  1.83470016e-03  1.40373012e-02  6.88426061e-02
  2.32184421e-01  4.67941342e-01  3.62312032e-01 -1.19332409e-01 -1.60854212e-01
  1.14345648e+00  6.89990956e-02  3.16423980e-01  7.44308252e-01  1.00000000e+00
  1.00000000e+00  1.00000000e+00  1.00000000e+00  1.00000000e+00  1.83470016e-03
  1.40373012e-02  6.88426061e-02  2.32184421e-01  4.67941342e-01  3.62312032e-01
 -1.19332409e-01 -1.60854212e-01  1.14345648e+00  6.89990956e-02  3.16423980e-01
  7.44308252e-01  1.00000000e+00  1.00000000e+00  1.00000000e+00  1.00000000e+00
  1.00000000e+00  1.83470016e-03  1.40373012e-02  6.88426061e-02  2.32184421e-01
  4.67941342e-01  3.62312032e-01 -1.19332409e-01 -1.60854212e-01  1.14345648e+00
  6.89990956e-02  3.16423980e-01  7.44308252e-01  1.00000000e+00  1.00000000e+00
  1.00000000e+00  1.00000000e+00  1.00000000e+00  1.83470016e-03  1.40373012e-02
  6.88426061e-02  2.32184421e-01  4.67941342e-01  3.62312032e-01 -1.19332409e-01
 -1.60854212e-01  1.14345648e+00  6.89990956e-02  3.16423980e-01  7.44308252e-01
  1.00000000e+00  1.00000000e+00  1.00000000e+00  1.00000000e+00  1.00000000e+00
  1.83470016e-03  1.40373012e-02  6.88426061e-02  2.32184421e-01  4.67941342e-01
  3.62312032e-01 -1.19332409e-01 -1.60854212e-01  1.14345648e+00  6.89990956e-02
  3.16423980e-01  7.44308252e-01  1.00000000e+00  1.00000000e+00  1.00000000e+00
  1.00000000e+00  1.00000000e+00  1.83470016e-03  1.40373012e-02  6.88426061e-02
  2.32184421e-01  4.67941342e-01  3.62312032e-01 -1.19332409e-01 -1.60854212e-01
  1.14345648e+00  6.89990956e-02  3.16423980e-01  7.44308252e-01  1.00000000e+00
  1.00000000e+00  1.00000000e+00  1.00000000e+00  1.00000000e+00  1.83470016e-03
  1.40373012e-02  6.88426061e-02  2.32184421e-01  4.67941342e-01  3.62312032e-01
 -1.19332409e-01 -1.60854212e-01  1.14345648e+00  6.89990956e-02  3.16423980e-01
  7.44308252e-01  1.00000000e+00  1.00000000e+00  1.00000000e+00  1.00000000e+00
  1.00000000e+00  1.83470016e-03  1.40373012e-02  6.88426061e-02  2.32184421e-01
  4.67941342e-01  3.62312032e-01 -1.19332409e-01 -1.60854212e-01  1.14345648e+00
  6.89990956e-02  3.16423980e-01  7.44308252e-01  1.00000000e+00  1.00000000e+00
  1.00000000e+00  1.00000000e+00  1.00000000e+00  1.83470016e-03  1.40373012e-02
  6.88426061e-02  2.32184421e-01  4.67941342e-01  3.62312032e-01 -1.19332409e-01
 -1.60854212e-01  1.14345648e+00  6.89990956e-02  3.16423980e-01  7.44308252e-01
  1.00000000e+00  1.00000000e+00  1.00000000e+00  1.00000000e+00  1.00000000e+00
  1.83470016e-03  1.40373012e-02  6.88426061e-02  2.32184421e-01  4.67941342e-01
  3.62312032e-01 -1.19332409e-01 -1.60854212e-01  1.14345648e+00  6.89990956e-02
  3.16423980e-01  7.44308252e-01  1.00000000e+00  1.00000000e+00  1.00000000e+00
  1.00000000e+00  1.00000000e+00  1.83470016e-03  1.40373012e-02  6.88426061e-02
  2.32184421e-01  4.67941342e-01  3.62312032e-01 -1.19332409e-01 -1.60854212e-01
  1.14345648e+00  6.89990956e-02  3.16423980e-01  7.44308252e-01  1.00000000e+00
  1.00000000e+00  1.00000000e+00  1.00000000e+00  1.00000000e+00  3.34945995e-02
  2.34726947e-01  8.13757318e-01  1.00000000e+00  3.34945995e-02  2.34726947e-01
  8.13757318e-01  1.00000000e+00  3.34945995e-02  2.34726947e-01  8.13757318e-01
  1.00000000e+00  3.34945995e-02  2.34726947e-01  8.13757318e-01  1.00000000e+00
  3.34945995e-02  2.34726947e-01  8.13757318e-01  1.00000000e+00  3.34945995e-02
  2.34726947e-01  8.13757318e-01  1.00000000e+00  3.34945995e-02  2.34726947e-01
  8.13757318e-01  1.00000000e+00  3.34945995e-02  2.34726947e-01  8.13757318e-01
  1.00000000e+00  1.83470016e-03  1.40373012e-02  6.88426061e-02  2.32184421e-01
  4.67941342e-01  3.62312032e-01 -1.19332409e-01 -1.60854212e-01  1.14345648e+00
  6.89990956e-02  3.16423980e-01  7.44308252e-01  1.00000000e+00  1.00000000e+00
  1.00000000e+00  1.00000000e+00  1.00000000e+00  3.34945995e-02  2.34726947e-01
  8.13757318e-01  1.00000000e+00  3.34945995e-02  2.34726947e-01  8.13757318e-01
  1.00000000e+00  3.34945995e-02  2.34726947e-01  8.13757318e-01  1.00000000e+00
  3.34945995e-02  2.34726947e-01  8.13757318e-01  1.00000000e+00  3.34945995e-02
  2.34726947e-01  8.13757318e-01  1.00000000e+00  3.34945995e-02  2.34726947e-01
  8.13757318e-01  1.00000000e+00  1.83479944e-03  1.39949958e-02  6.85869792e-02
  2.32240930e-01  4.69069858e-01  3.60454891e-01 -1.14961023e-01 -1.69118034e-01
  1.14585223e+00  6.75800232e-02  3.23907111e-01  7.40895255e-01  1.00000000e+00
  1.00000000e+00  1.00000000e+00  1.00000000e+00  1.00000000e+00  3.34945995e-02
  2.34726947e-01  8.13757318e-01  1.00000000e+00  1.83470016e-03  1.40373012e-02
  6.88426061e-02  2.32184421e-01  4.67941342e-01  3.62312032e-01 -1.19332409e-01
 -1.60854212e-01  1.14345648e+00  6.89990956e-02  3.16423980e-01  7.44308252e-01
  1.00000000e+00  1.00000000e+00  1.00000000e+00  1.00000000e+00  1.00000000e+00
  1.83470016e-03  1.40373012e-02  6.88426061e-02  2.32184421e-01  4.67941342e-01
  3.62312032e-01 -1.19332409e-01 -1.60854212e-01  1.14345648e+00  6.89990956e-02
  3.16423980e-01  7.44308252e-01  1.00000000e+00  1.00000000e+00  1.00000000e+00
  1.00000000e+00  1.00000000e+00  3.34945995e-02  2.34726947e-01  8.13757318e-01
  1.00000000e+00  3.34945995e-02  2.34726947e-01  8.13757318e-01  1.00000000e+00
  3.34945995e-02  2.34726947e-01  8.13757318e-01  1.00000000e+00  3.34945995e-02
  2.34726947e-01  8.13757318e-01  1.00000000e+00  3.34945995e-02  2.34726947e-01
  8.13757318e-01  1.00000000e+00  3.34945995e-02  2.34726947e-01  8.13757318e-01
  1.00000000e+00
Coordinates of each shell                  R   N=         510
 -4.83745608e+00 -4.44903613e-01  3.95218234e+00 -4.83745608e+00 -4.44903613e-01
  3.95218234e+00 -4.83745608e+00 -4.44903613e-01  3.95218234e+00 -4.83745608e+00
 -4.44903613e-01  3.95218234e+00 -4.83745608e+00 -4.44903613e-01  3.95218234e+00
 -4.83745608e+00 -4.44903613e-01  3.95218234e+00 -4.83745608e+00 -4.44903613e-01
  3.95218234e+00 -4.83745608e+00 -4.44903613e-01  3.95218234e+00 -2.48934844e+00
  3.79483067e-01  5.54617972e+00 -2.48934844e+00  3.79483067e-01  5.54617972e+00
 -2.48934844e+00  3.79483067e-01  5.54617972e+00 -2.48934844e+00  3.79483067e-01
  5.54617972e+00 -2.48934844e+00  3.79483067e-01  5.54617972e+00 -2.48934844e+00
  3.79483067e-01  5.54617972e+00 -2.48934844e+00  3.79483067e-01  5.54617972e+00
 -2.48934844e+00  3.79483067e-01  5.54617972e+00 -2.37994527e-01 -5.18716524e-01
  3.91046001e+00 -2.37994527e-01 -5.18716524e-01  3.91046001e+00 -2.37994527e-01
 -5.18716524e-01  3.91046001e+00 -2.37994527e-01 -5.18716524e-01  3.91046001e+00
 -2.37994527e-01 -5.18716524e-01  3.91046001e+00 -2.37994527e-01 -5.18716524e-01
  3.91046001e+00 -2.37994527e-01 -5.18716524e-01  3.91046001e+00 -2.37994527e-01
 -5.18716524e-01  3.91046001e+00 -9.53474156e-02  1.18987057e+00  1.52549572e+00
 -9.53474156e-02  1.18987057e+00  1.52549572e+00 -9.53474156e-02  1.18987057e+00
  1.52549572e+00 -9.53474156e-02  1.18987057e+00  1.52549572e+00 -9.53474156e-02
  1.18987057e+00  1.52549572e+00 -9.53474156e-02  1.18987057e+00  1.52549572e+00
 -9.53474156e-02  1.18987057e+00  1.52549572e+00 -9.53474156e-02  1.18987057e+00
  1.52549572e+00  4.26263628e+00 -6.54968132e-01  3.86234777e-01  4.26263628e+00
 -6.54968132e-01  3.86234777e-01  4.26263628e+00 -6.54968132e-01  3.86234777e-01
  4.26263628e+00 -6.54968132e-01  3.86234777e-01  4.26263628e+00 -6.54968132e-01
  3.86234777e-01  4.26263628e+00 -6.54968132e-01  3.86234777e-01  4.26263628e+00
 -6.54968132e-01  3.86234777e-01  4.26263628e+00 -6.54968132e-01  3.86234777e-01
  2.42838673e+00  1.24350154e+00  1.51070180e-01  2.42838673e+00  1.24350154e+00
  1.51070180e-01  2.42838673e+00  1.24350154e+00  1.51070180e-01  2.42838673e+00
  1.24350154e+00  1.51070180e-01  2.42838673e+00  1.24350154e+00  1.51070180e-01
  2.42838673e+00  1.24350154e+00  1.51070180e-01  2.42838673e+00  1.24350154e+00
  1.51070180e-01  2.42838673e+00  1.24350154e+00  1.51070180e-01  6.56400483e+00
 -5.05306900e-01 -9.09700612e-01  6.56400483e+00 -5.05306900e-01 -9.09700612e-01
  6.56400483e+00 -5.05306900e-01 -9.09700612e-01  6.56400483e+00 -5.05306900e-01
 -9.09700612e-01  6.56400483e+00 -5.05306900e-01 -9.09700612e-01  6.56400483e+00
 -5.05306900e-01 -9.09700612e-01  6.56400483e+00 -5.05306900e-01 -9.09700612e-01
  6.56400483e+00 -5.05306900e-01 -9.09700612e-01  7.08319937e+00  1.55626961e+00
 -2.47011021e+00  7.08319937e+00  1.55626961e+00 -2.47011021e+00  7.08319937e+00
  1.55626961e+00 -2.47011021e+00  7.08319937e+00  1.55626961e+00 -2.47011021e+00
  7.08319937e+00  1.55626961e+00 -2.47011021e+00  7.08319937e+00  1.55626961e+00
 -2.47011021e+00  7.08319937e+00  1.55626961e+00 -2.47011021e+00  7.08319937e+00
  1.55626961e+00 -2.47011021e+00 -3.63971414e+00 -1.80665463e+00  1.65498332e+00
 -3.63971414e+00 -1.80665463e+00  1.65498332e+00 -3.63971414e+00 -1.80665463e+00
  1.65498332e+00 -3.63971414e+00 -1.80665463e+00  1.65498332e+00 -3.63971414e+00
 -1.80665463e+00  1.65498332e+00 -3.63971414e+00 -1.80665463e+00  1.65498332e+00
 -3.63971414e+00 -1.80665463e+00  1.65498332e+00 -3.63971414e+00 -1.80665463e+00
  1.65498332e+00 -2.44345161e+00  2.19609741e-01 -1.29836119e-01 -2.44345161e+00
  2.19609741e-01 -1.29836119e-01 -2.44345161e+00  2.19609741e-01 -1.29836119e-01
 -2.44345161e+00  2.19609741e-01 -1.29836119e-01 -2.44345161e+00  2.19609741e-01
 -1.29836119e-01 -2.44345161e+00  2.19609741e-01 -1.29836119e-01 -2.44345161e+00
  2.19609741e-01 -1.29836119e-01 -2.44345161e+00  2.19609741e-01 -1.29836119e-01
  2.99032232e+00  3.30898300e+00 -1.41967380e+00  2.99032232e+00  3.30898300e+00
 -1.41967380e+00  2.99032232e+00  3.30898300e+00 -1.41967380e+00  2.99032232e+00
  3.30898300e+00 -1.41967380e+00  2.99032232e+00  3.30898300e+00 -1.41967380e+00
  2.99032232e+00  3.30898300e+00 -1.41967380e+00  2.99032232e+00  3.30898300e+00
 -1.41967380e+00  2.99032232e+00  3.30898300e+00 -1.41967380e+00  5.27906634e+00
  3.47261848e+00 -2.71615964e+00  5.27906634e+00  3.47261848e+00 -2.71615964e+00
  5.27906634e+00  3.47261848e+00 -2.71615964e+00  5.27906634e+00  3.47261848e+00
 -2.71615964e+00  5.27906634e+00  3.47261848e+00 -2.71615964e+00  5.27906634e+00
  3.47261848e+00 -2.71615964e+00  5.27906634e+00  3.47261848e+00 -2.71615964e+00
  5.27906634e+00  3.47261848e+00 -2.71615964e+00  7.95312093e+00 -2.00330806e+00
 -6.83862862e-01  7.95312093e+00 -2.00330806e+00 -6.83862862e-01  8.87242663e+00
  1.67752926e+00 -3.47252290e+00  8.87242663e+00  1.67752926e+00 -3.47252290e+00
  3.92329338e+00 -2.27208190e+00  1.60378908e+00  3.92329338e+00 -2.27208190e+00
  1.60378908e+00  5.65739320e+00  5.09754893e+00 -3.91626108e+00  5.65739320e+00
  5.09754893e+00 -3.91626108e+00  1.60067340e+00  4.80966079e+00 -1.63089149e+00
  1.60067340e+00  4.80966079e+00 -1.63089149e+00 -2.46912090e+00 -5.67690206e-01
  7.38934820e+00 -2.46912090e+00 -5.67690206e-01  7.38934820e+00 -2.43146734e+00
  2.41909030e+00  5.90388067e+00 -2.43146734e+00  2.41909030e+00  5.90388067e+00
 -4.91267984e-01  3.14823028e+00  2.07859918e+00 -4.91267984e-01  3.14823028e+00
  2.07859918e+00 -1.28580998e+00 -3.03322648e+00  2.85367357e+00 -1.28580998e+00
 -3.03322648e+00  2.85367357e+00 -1.28580998e+00 -3.03322648e+00  2.85367357e+00
 -1.28580998e+00 -3.03322648e+00  2.85367357e+00 -1.28580998e+00 -3.03322648e+00
  2.85367357e+00 -1.28580998e+00 -3.03322648e+00  2.85367357e+00 -1.28580998e+00
 -3.03322648e+00  2.85367357e+00 -1.28580998e+00 -3.03322648e+00  2.85367357e+00
  1.54183227e+00 -6.26654578e-01  4.95603108e+00  1.54183227e+00 -6.26654578e-01
  4.95603108e+00 -1.74274323e+00 -4.41011612e+00  4.33539231e+00 -1.74274323e+00
 -4.41011612e+00  4.33539231e+00 -4.48041055e-02 -3.95343654e+00  1.47413953e+00
 -4.48041055e-02 -3.95343654e+00  1.47413953e+00 -4.93130783e+00 -3.08324129e+00
  6.73451142e-01 -4.93130783e+00 -3.08324129e+00  6.73451142e-01 -6.05416770e+00
 -1.73737432e+00  5.02061259e+00 -6.05416770e+00 -1.73737432e+00  5.02061259e+00
 -6.01483999e+00  1.16093389e+00  3.37495351e+00 -6.01483999e+00  1.16093389e+00
  3.37495351e+00 -1.72530851e+00 -5.80688877e-01 -2.65466240e+00 -1.72530851e+00
 -5.80688877e-01 -2.65466240e+00 -1.72530851e+00 -5.80688877e-01 -2.65466240e+00
 -1.72530851e+00 -5.80688877e-01 -2.65466240e+00 -1.72530851e+00 -5.80688877e-01