Generated by Psi4
     FORCE                           RHF                       TESTBAS
Number of atoms                            I               36
Charge                                     I                0
Multiplicity                               I                1
Number of electrons                        I              126
Number of alpha electrons                  I               63
Number of beta electrons                   I               63
Number of basis functions                  I              361
Number of independent functions            I              361
Atomic numbers                             I   N=          36
           6           6           6           6           6           6
           6           6           1           1           1           1
           1           6           6           1           8           8
           6           1           1           1           7           1
           6           6           1           1           6           1
           1           1           1           1           1           1
Nuclear charges                            R   N=          36
  6.00000000e+00  6.00000000e+00  6.00000000e+00  6.00000000e+00  6.00000000e+00
  6.00000000e+00  6.00000000e+00  6.00000000e+00  1.00000000e+00  1.00000000e+00
  1.00000000e+00  1.00000000e+00  1.00000000e+00  6.00000000e+00  6.00000000e+00
  1.00000000e+00  8.00000000e+00  8.00000000e+00  6.00000000e+00  1.00000000e+00
  1.00000000e+00  1.00000000e+00  7.00000000e+00  1.00000000e+00  6.00000000e+00
  6.00000000e+00  1.00000000e+00  1.00000000e+00  6.00000000e+00  1.00000000e+00
  1.00000000e+00  1.00000000e+00  1.00000000e+00  1.00000000e+00  1.00000000e+00
  1.00000000e+00
Current cartesian coordinates              R   N=         108
 -1.42197533e-01  1.21160718e+00  5.85032137e-01  3.78609350e+00 -1.39387991e+00
 -5.37041598e-01  2.55611566e+00  9.53049832e-01 -3.96328511e-01  6.25426514e+00
 -1.56892649e+00 -1.45471397e+00  7.54448821e+00  5.99088481e-01 -2.24136204e+00
 -2.10161070e+00 -4.17815101e-01 -8.53600168e-01  3.87287837e+00  3.11372476e+00
 -1.18329267e+00  6.34508025e+00  2.94532886e+00 -2.09904347e+00  7.17372766e+00
 -3.40414798e+00 -1.54883800e+00  9.46659642e+00  4.59050945e-01 -2.95247562e+00
  2.82060681e+00 -3.09017703e+00  9.62029915e-02  7.32769614e+00  4.64765910e+00
 -2.69713072e+00  2.95492398e+00  4.94990031e+00 -1.07392531e+00 -2.22967601e+00
  2.31305335e-01 -3.69062981e+00 -3.07809791e-01  7.28045911e-01  3.43250051e+00
 -6.97522111e-01  3.19663529e+00  3.75998855e-01 -7.17967001e-01  2.36040617e+00
  4.99191863e+00  1.08695698e-01 -1.71463738e+00  4.02921035e+00 -6.04572207e-02
 -2.33739787e+00  6.67096487e+00 -1.95020920e+00 -1.90058298e+00  7.38217520e+00
  1.34454771e+00 -1.27703389e+00  7.75259379e+00  3.10401909e-01 -4.36184521e+00
  6.78096039e+00 -4.55655843e+00 -1.61783668e-01  4.25999976e-01 -1.55799361e+00
 -2.41256198e+00 -6.59781255e-01 -6.57756158e+00 -1.60228515e+00 -8.15021540e-01
 -6.86187280e+00 -1.01828222e+00 -3.64777930e+00 -8.34481942e+00 -1.23370005e+00
  2.02005837e-01 -6.14766296e+00 -3.61984054e+00 -5.60468450e-01 -4.31334102e+00
 -1.31053150e+00 -5.00858279e+00 -7.55253356e+00  9.30833058e-01 -3.87515532e+00
 -8.29145285e+00 -2.26411201e+00 -4.49420552e+00 -4.47658522e+00 -7.37685235e-01
 -6.99533059e+00 -3.76986823e+00 -3.31861273e+00 -5.01820916e+00 -3.97865040e-01
 -1.14684126e-01 -4.59630968e+00 -2.63021000e+00  2.26387448e+00 -3.89642394e+00
 -5.05109666e+00  1.70209988e+00  5.07097499e-01
Integer atomic weights                     I   N=          36
          12          12          12          12          12          12
          12          12           1           1           1           1
           1          12          12           1          15          15
          12           1           1           1          14           1
          12          12           1           1          12           1
           1           1           1           1           1           1
Real atomic weights                        R   N=          36
  1.20000000e+01  1.20000000e+01  1.20000000e+01  1.20000000e+01  1.20000000e+01
  1.20000000e+01  1.20000000e+01  1.20000000e+01  1.00782503e+00  1.00782503e+00
  1.00782503e+00  1.00782503e+00  1.00782503e+00  1.20000000e+01  1.20000000e+01
  1.00782503e+00  1.59949146e+01  1.59949146e+01  1.20000000e+01  1.00782503e+00
  1.00782503e+00  1.00782503e+00  1.40030740e+01  1.00782503e+00  1.20000000e+01
  1.20000000e+01  1.00782503e+00  1.00782503e+00  1.20000000e+01  1.00782503e+00
  1.00782503e+00  1.00782503e+00  1.00782503e+00  1.00782503e+00  1.00782503e+00
  1.00782503e+00
Number of primitive shells                 I              365
Number of contracted shells                I              174
Pure/Cartesian d shells                    I                1
Pure/Cartesian f shells                    I                1
Highest angular momentum                   I                2
Largest degree of contraction              I                6
Shell types                                I   N=         174
           0           0           1           0           1           2
           0           1           0           0           1           0
           1           2           0           1           0           0
           1           0           1           2           0           1
           0           0           1           0           1           2
           0           1           0           0           1           0
           1           2           0           1           0           0
           1           0           1           2           0           1
           0           0           1           0           1           2
           0           1           0           0           1           0
           1           2           0           1           0           0
           0           0           0           0           0           0
           0           0           0           0           1           0
           1           2           0           1           0           0
           1           0           1           2           0           1
           0           0           0           0           1           0
           1           2           0           1           0           0
           1           0           1           2           0           1
           0           0           1           0           1           2
           0           1           0           0           0           0
           0           0           0           0           1           0
           1           2           0           1           0           0
           0           0           1           0           1           2
           0           1           0           0           1           0
           1           2           0           1           0           0
           0           0           0           0           1           0
           1           2           0           1           0           0
           0           0           0           0           0           0
           0           0           0           0           0           0
Number of primitives per shell             I   N=         174
           6           3           3           1           1           1
           1           1           6           3           3           1
           1           1           1           1           6           3
           3           1           1           1           1           1
           6           3           3           1           1           1
           1           1           6           3           3           1
           1           1           1           1           6           3
           3           1           1           1           1           1
           6           3           3           1           1           1
           1           1           6           3           3           1
           1           1           1           1           3           1
           3           1           3           1           3           1
           3           1           6           3           3           1
           1           1           1           1           6           3
           3           1           1           1           1           1
           3           1           6           3           3           1
           1           1           1           1           6           3
           3           1           1           1           1           1
           6           3           3           1           1           1
           1           1           3           1           3           1
           3           1           6           3           3           1
           1           1           1           1           3           1
           6           3           3           1           1           1
           1           1           6           3           3           1
           1           1           1           1           3           1
           3           1           6           3           3           1
           1           1           1           1           3           1
           3           1           3           1           3           1
           3           1           3           1           3           1
Shell to atom map                          I   N=         174
           1           1           1           1           1           1
           1           1           2           2           2           2
           2           2           2           2           3           3
           3           3           3           3           3           3
           4           4           4           4           4           4
           4           4           5           5           5           5
           5           5           5           5           6           6
           6           6           6           6           6           6
           7           7           7           7           7           7
           7           7           8           8           8           8
           8           8           8           8           9           9
          10          10          11          11          12          12
          13          13          14          14          14          14
          14          14          14          14          15          15
          15          15          15          15          15          15
          16          16          17          17          17          17
          17          17          17          17          18          18
          18          18          18          18          18          18
          19          19          19          19          19          19
          19          19          20          20          21          21
          22          22          23          23          23          23
          23          23          23          23          24          24
          25          25          25          25          25          25
          25          25          26          26          26          26
          26          26          26          26          27          27
          28          28          29          29          29          29
          29          29          29          29          30          30
          31          31          32          32          33          33
          34          34          35          35          36          36
Primitive exponents                        R   N=         365
  3.04752490e+03  4.57369510e+02  1.03948690e+02  2.92101550e+01  9.28666300e+00
  3.16392700e+00  7.86827240e+00  1.88128850e+00  5.44249300e-01  7.86827240e+00
  1.88128850e+00  5.44249300e-01  1.68714400e-01  1.68714400e-01  8.00000000e-01
  4.38000000e-02  4.38000000e-02  3.04752490e+03  4.57369510e+02  1.03948690e+02
  2.92101550e+01  9.28666300e+00  3.16392700e+00  7.86827240e+00  1.88128850e+00
  5.44249300e-01  7.86827240e+00  1.88128850e+00  5.44249300e-01  1.68714400e-01
  1.68714400e-01  8.00000000e-01  4.38000000e-02  4.38000000e-02  3.04752490e+03
  4.57369510e+02  1.03948690e+02  2.92101550e+01  9.28666300e+00  3.16392700e+00
  7.86827240e+00  1.88128850e+00  5.44249300e-01  7.86827240e+00  1.88128850e+00
  5.44249300e-01  1.68714400e-01  1.68714400e-01  8.00000000e-01  4.38000000e-02
  4.38000000e-02  3.04752490e+03  4.57369510e+02  1.03948690e+02  2.92101550e+01
  9.28666300e+00  3.16392700e+00  7.86827240e+00  1.88128850e+00  5.44249300e-01
  7.86827240e+00  1.88128850e+00  5.44249300e-01  1.68714400e-01  1.68714400e-01
  8.00000000e-01  4.38000000e-02  4.38000000e-02  3.04752490e+03  4.57369510e+02
  1.03948690e+02  2.92101550e+01  9.28666300e+00  3.16392700e+00  7.86827240e+00
  1.88128850e+00  5.44249300e-01  7.86827240e+00  1.88128850e+00  5.44249300e-01
  1.68714400e-01  1.68714400e-01  8.00000000e-01  4.38000000e-02  4.38000000e-02
  3.04752490e+03  4.57369510e+02  1.03948690e+02  2.92101550e+01  9.28666300e+00
  3.16392700e+00  7.86827240e+00  1.88128850e+00  5.44249300e-01  7.86827240e+00
  1.88128850e+00  5.44249300e-01  1.68714400e-01  1.68714400e-01  8.00000000e-01
  4.38000000e-02  4.38000000e-02  3.04752490e+03  4.57369510e+02  1.03948690e+02
  2.92101550e+01  9.28666300e+00  3.16392700e+00  7.86827240e+00  1.88128850e+00
  5.44249300e-01  7.86827240e+00  1.88128850e+00  5.44249300e-01  1.68714400e-01
  1.68714400e-01  8.00000000e-01  4.38000000e-02  4.38000000e-02  3.04752490e+03
  4.57369510e+02  1.03948690e+02  2.92101550e+01  9.28666300e+00  3.16392700e+00
  7.86827240e+00  1.88128850e+00  5.44249300e-01  7.86827240e+00  1.88128850e+00
  5.44249300e-01  1.68714400e-01  1.68714400e-01  8.00000000e-01  4.38000000e-02
  4.38000000e-02  1.87311370e+01  2.82539370e+00  6.40121700e-01  1.61277800e-01
  1.87311370e+01  2.82539370e+00  6.40121700e-01  1.61277800e-01  1.87311370e+01
  2.82539370e+00  6.40121700e-01  1.61277800e-01  1.87311370e+01  2.82539370e+00
  6.40121700e-01  1.61277800e-01  1.87311370e+01  2.82539370e+00  6.40121700e-01
  1.61277800e-01  3.04752490e+03  4.57369510e+02  1.03948690e+02  2.92101550e+01
  9.28666300e+00  3.16392700e+00  7.86827240e+00  1.88128850e+00  5.44249300e-01
  7.86827240e+00  1.88128850e+00  5.44249300e-01  1.68714400e-01  1.68714400e-01
  8.00000000e-01  4.38000000e-02  4.38000000e-02  3.04752490e+03  4.57369510e+02
  1.03948690e+02  2.92101550e+01  9.28666300e+00  3.16392700e+00  7.86827240e+00
  1.88128850e+00  5.44249300e-01  7.86827240e+00  1.88128850e+00  5.44249300e-01
  1.68714400e-01  1.68714400e-01  8.00000000e-01  4.38000000e-02  4.38000000e-02
  1.87311370e+01  2.82539370e+00  6.40121700e-01  1.61277800e-01  5.48467170e+03
  8.25234950e+02  1.88046960e+02  5.29645000e+01  1.68975700e+01  5.79963530e+00
  1.55396160e+01  3.59993360e+00  1.01376180e+00  1.55396160e+01  3.59993360e+00
  1.01376180e+00  2.70005800e-01  2.70005800e-01  8.00000000e-01  8.45000000e-02
  8.45000000e-02  5.48467170e+03  8.25234950e+02  1.88046960e+02  5.29645000e+01
  1.68975700e+01  5.79963530e+00  1.55396160e+01  3.59993360e+00  1.01376180e+00
  1.55396160e+01  3.59993360e+00  1.01376180e+00  2.70005800e-01  2.70005800e-01
  8.00000000e-01  8.45000000e-02  8.45000000e-02  3.04752490e+03  4.57369510e+02
  1.03948690e+02  2.92101550e+01  9.28666300e+00  3.16392700e+00  7.86827240e+00
  1.88128850e+00  5.44249300e-01  7.86827240e+00  1.88128850e+00  5.44249300e-01
  1.68714400e-01  1.68714400e-01  8.00000000e-01  4.38000000e-02  4.38000000e-02
  1.87311370e+01  2.82539370e+00  6.40121700e-01  1.61277800e-01  1.87311370e+01
  2.82539370e+00  6.40121700e-01  1.61277800e-01  1.87311370e+01  2.82539370e+00
  6.40121700e-01  1.61277800e-01  4.17351100e+03  6.27457900e+02  1.42902100e+02
  4.02343300e+01  1.28202100e+01  4.39043700e+00  1.16263580e+01  2.71628000e+00
  7.72218000e-01  1.16263580e+01  2.71628000e+00  7.72218000e-01  2.12031300e-01
  2.12031300e-01  8.00000000e-01  6.39000000e-02  6.39000000e-02  1.87311370e+01
  2.82539370e+00  6.40121700e-01  1.61277800e-01  3.04752490e+03  4.57369510e+02
  1.03948690e+02  2.92101550e+01  9.28666300e+00  3.16392700e+00  7.86827240e+00
  1.88128850e+00  5.44249300e-01  7.86827240e+00  1.88128850e+00  5.44249300e-01
  1.68714400e-01  1.68714400e-01  8.00000000e-01  4.38000000e-02  4.38000000e-02
  3.04752490e+03  4.57369510e+02  1.03948690e+02  2.92101550e+01  9.28666300e+00
  3.16392700e+00  7.86827240e+00  1.88128850e+00  5.44249300e-01  7.86827240e+00
  1.88128850e+00  5.44249300e-01  1.68714400e-01  1.68714400e-01  8.00000000e-01
  4.38000000e-02  4.38000000e-02  1.87311370e+01  2.82539370e+00  6.40121700e-01
  1.61277800e-01  1.87311370e+01  2.82539370e+00  6.40121700e-01  1.61277800e-01
  3.04752490e+03  4.57369510e+02  1.03948690e+02  2.92101550e+01  9.28666300e+00
  3.16392700e+00  7.86827240e+00  1.88128850e+00  5.44249300e-01  7.86827240e+00
  1.88128850e+00  5.44249300e-01  1.68714400e-01  1.68714400e-01  8.00000000e-01
  4.38000000e-02  4.38000000e-02  1.87311370e+01  2.82539370e+00  6.40121700e-01
  1.61277800e-01  1.87311370e+01  2.82539370e+00  6.40121700e-01  1.61277800e-01
  1.87311370e+01  2.82539370e+00  6.40121700e-01  1.61277800e-01  1.87311370e+01
  2.82539370e+00  6.40121700e-01  1.61277800e-01  1.87311370e+01  2.82539370e+00
  6.40121700e-01  1.61277800e-01  1.87311370e+01  2.82539370e+00  6.40121700e-01
  1.61277800e-01  1.87311370e+01  2.82539370e+00  6.40121700e-01  1.61277800e-01
Contraction coefficients                   R   N=         365
  1.83470016e-03  1.40373012e-02  6.88426061e-02  2.32184421e-01  4.67941342e-01
  3.62312032e-01 -1.19332409e-01 -1.60854212e-01  1.14345648e+00  6.89990956e-02
  3.16423980e-01  7.44308252e-01  1.00000000e+00  1.00000000e+00  1.00000000e+00
  1.00000000e+00  1.00000000e+00  1.83470016e-03  1.40373012e-02  6.88426061e-02
  2.32184421e-01  4.67941342e-01  3.62312032e-01 -1.19332409e-01 -1.60854212e-01
  1.14345648e+00  6.89990956e-02  3.16423980e-01  7.44308252e-01  1.00000000e+00
  1.00000000e+00  1.00000000e+00  1.00000000e+00  1.00000000e+00  1.83470016e-03
  1.40373012e-02  6.88426061e-02  2.32184421e-01  4.67941342e-01  3.62312032e-01
 -1.19332409e-01 -1.60854212e-01  1.14345648e+00  6.89990956e-02  3.16423980e-01
  7.44308252e-01  1.00000000e+00  1.00000000e+00  1.00000000e+00  1.00000000e+00
  1.00000000e+00  1.83470016e-03  1.40373012e-02  6.88426061e-02  2.32184421e-01
  4.67941342e-01  3.62312032e-01 -1.19332409e-01 -1.60854212e-01  1.14345648e+00
  6.89990956e-02  3.16423980e-01  7.44308252e-01  1.00000000e+00  1.00000000e+00
  1.00000000e+00  1.00000000e+00  1.00000000e+00  1.83470016e-03  1.40373012e-02
  6.88426061e-02  2.32184421e-01  4.67941342e-01  3.62312032e-01 -1.19332409e-01
 -1.60854212e-01  1.14345648e+00  6.89990956e-02  3.16423980e-01  7.44308252e-01
  1.00000000e+00  1.00000000e+00  1.00000000e+00  1.00000000e+00  1.00000000e+00
  1.83470016e-03  1.40373012e-02  6.88426061e-02  2.32184421e-01  4.67941342e-01
  3.62312032e-01 -1.19332409e-01 -1.60854212e-01  1.14345648e+00  6.89990956e-02
  3.16423980e-01  7.44308252e-01  1.00000000e+00  1.00000000e+00  1.00000000e+00
  1.00000000e+00  1.00000000e+00  1.83470016e-03  1.40373012e-02  6.88426061e-02
  2.32184421e-01  4.67941342e-01  3.62312032e-01 -1.19332409e-01 -1.60854212e-01
  1.14345648e+00  6.89990956e-02  3.16423980e-01  7.44308252e-01  1.00000000e+00
  1.00000000e+00  1.00000000e+00  1.00000000e+00  1.00000000e+00  1.83470016e-03
  1.40373012e-02  6.88426061e-02  2.32184421e-01  4.67941342e-01  3.62312032e-01
 -1.19332409e-01 -1.60854212e-01  1.14345648e+00  6.89990956e-02  3.16423980e-01
  7.44308252e-01  1.00000000e+00  1.00000000e+00  1.00000000e+00  1.00000000e+00
  1.00000000e+00  3.34945995e-02  2.34726947e-01  8.13757318e-01  1.00000000e+00
  3.34945995e-02  2.34726947e-01  8.13757318e-01  1.00000000e+00  3.34945995e-02
  2.34726947e-01  8.13757318e-01  1.00000000e+00  3.34945995e-02  2.34726947e-01
  8.13757318e-01  1.00000000e+00  3.34945995e-02  2.34726947e-01  8.13757318e-01
  1.00000000e+00  1.83470016e-03  1.40373012e-02  6.88426061e-02  2.32184421e-01
  4.67941342e-01  3.62312032e-01 -1.19332409e-01 -1.60854212e-01  1.14345648e+00
  6.89990956e-02  3.16423980e-01  7.44308252e-01  1.00000000e+00  1.00000000e+00
  1.00000000e+00  1.00000000e+00  1.00000000e+00  1.83470016e-03  1.40373012e-02
  6.88426061e-02  2.32184421e-01  4.67941342e-01  3.62312032e-01 -1.19332409e-01
 -1.60854212e-01  1.14345648e+00  6.89990956e-02  3.16423980e-01  7.44308252e-01
  1.00000000e+00  1.00000000e+00  1.00000000e+00  1.00000000e+00  1.00000000e+00
  3.34945995e-02  2.34726947e-01  8.13757318e-01  1.00000000e+00  1.83109981e-03
  1.39500985e-02  6.84450927e-02  2.32714275e-01  4.70192950e-01  3.58520862e-01
 -1.10777504e-01 -1.48026305e-01  1.13076704e+00  7.08742995e-02  3.39752798e-01
  7.27158595e-01  1.00000000e+00  1.00000000e+00  1.00000000e+00  1.00000000e+00
  1.00000000e+00  1.83109981e-03  1.39500985e-02  6.84450927e-02  2.32714275e-01
  4.70192950e-01  3.58520862e-01 -1.10777504e-01 -1.48026305e-01  1.13076704e+00
  7.08742995e-02  3.39752798e-01  7.27158595e-01  1.00000000e+00  1.00000000e+00
  1.00000000e+00  1.00000000e+00  1.00000000e+00  1.83470016e-03  1.40373012e-02
  6.88426061e-02  2.32184421e-01  4.67941342e-01  3.62312032e-01 -1.19332409e-01
 -1.60854212e-01  1.14345648e+00  6.89990956e-02  3.16423980e-01  7.44308252e-01
  1.00000000e+00  1.00000000e+00  1.00000000e+00  1.00000000e+00  1.00000000e+00
  3.34945995e-02  2.34726947e-01  8.13757318e-01  1.00000000e+00  3.34945995e-02
  2.34726947e-01  8.13757318e-01  1.00000000e+00  3.34945995e-02  2.34726947e-01
  8.13757318e-01  1.00000000e+00  1.83479944e-03  1.39949958e-02  6.85869792e-02
  2.32240930e-01  4.69069858e-01  3.60454891e-01 -1.14961023e-01 -1.69118034e-01
  1.14585223e+00  6.75800232e-02  3.23907111e-01  7.40895255e-01  1.00000000e+00
  1.00000000e+00  1.00000000e+00  1.00000000e+00  1.00000000e+00  3.34945995e-02
  2.34726947e-01  8.13757318e-01  1.00000000e+00  1.83470016e-03  1.40373012e-02
  6.88426061e-02  2.32184421e-01  4.67941342e-01  3.62312032e-01 -1.19332409e-01
 -1.60854212e-01  1.14345648e+00  6.89990956e-02  3.16423980e-01  7.44308252e-01
  1.00000000e+00  1.00000000e+00  1.00000000e+00  1.00000000e+00  1.00000000e+00
  1.83470016e-03  1.40373012e-02  6.88426061e-02  2.32184421e-01  4.67941342e-01
  3.62312032e-01 -1.19332409e-01 -1.60854212e-01  1.14345648e+00  6.89990956e-02
  3.16423980e-01  7.44308252e-01  1.00000000e+00  1.00000000e+00  1.00000000e+00
  1.00000000e+00  1.00000000e+00  3.34945995e-02  2.34726947e-01  8.13757318e-01
  1.00000000e+00  3.34945995e-02  2.34726947e-01  8.13757318e-01  1.00000000e+00
  1.83470016e-03  1.40373012e-02  6.88426061e-02  2.32184421e-01  4.67941342e-01
  3.62312032e-01 -1.19332409e-01 -1.60854212e-01  1.14345648e+00  6.89990956e-02
  3.16423980e-01  7.44308252e-01  1.00000000e+00  1.00000000e+00  1.00000000e+00
  1.00000000e+00  1.00000000e+00  3.34945995e-02  2.34726947e-01  8.13757318e-01
  1.00000000e+00  3.34945995e-02  2.34726947e-01  8.13757318e-01  1.00000000e+00
  3.34945995e-02  2.34726947e-01  8.13757318e-01  1.00000000e+00  3.34945995e-02
  2.34726947e-01  8.13757318e-01  1.00000000e+00  3.34945995e-02  2.34726947e-01
  8.13757318e-01  1.00000000e+00  3.34945995e-02  2.34726947e-01  8.13757318e-01
  1.00000000e+00  3.34945995e-02  2.34726947e-01  8.13757318e-01  1.00000000e+00
Coordinates of each shell                  R   N=         522
 -1.42197533e-01  1.21160718e+00  5.85032137e-01 -1.42197533e-01  1.21160718e+00
  5.85032137e-01 -1.42197533e-01  1.21160718e+00  5.85032137e-01 -1.42197533e-01
  1.21160718e+00  5.85032137e-01 -1.42197533e-01  1.21160718e+00  5.85032137e-01
 -1.42197533e-01  1.21160718e+00  5.85032137e-01 -1.42197533e-01  1.21160718e+00
  5.85032137e-01 -1.42197533e-01  1.21160718e+00  5.85032137e-01  3.78609350e+00
 -1.39387991e+00 -5.37041598e-01  3.78609350e+00 -1.39387991e+00 -5.37041598e-01
  3.78609350e+00 -1.39387991e+00 -5.37041598e-01  3.78609350e+00 -1.39387991e+00
 -5.37041598e-01  3.78609350e+00 -1.39387991e+00 -5.37041598e-01  3.78609350e+00
 -1.39387991e+00 -5.37041598e-01  3.78609350e+00 -1.39387991e+00 -5.37041598e-01
  3.78609350e+00 -1.39387991e+00 -5.37041598e-01  2.55611566e+00  9.53049832e-01
 -3.96328511e-01  2.55611566e+00  9.53049832e-01 -3.96328511e-01  2.55611566e+00
  9.53049832e-01 -3.96328511e-01  2.55611566e+00  9.53049832e-01 -3.96328511e-01
  2.55611566e+00  9.53049832e-01 -3.96328511e-01  2.55611566e+00  9.53049832e-01
 -3.96328511e-01  2.55611566e+00  9.53049832e-01 -3.96328511e-01  2.55611566e+00
  9.53049832e-01 -3.96328511e-01  6.25426514e+00 -1.56892649e+00 -1.45471397e+00
  6.25426514e+00 -1.56892649e+00 -1.45471397e+00  6.25426514e+00 -1.56892649e+00
 -1.45471397e+00  6.25426514e+00 -1.56892649e+00 -1.45471397e+00  6.25426514e+00
 -1.56892649e+00 -1.45471397e+00  6.25426514e+00 -1.56892649e+00 -1.45471397e+00
  6.25426514e+00 -1.56892649e+00 -1.45471397e+00  6.25426514e+00 -1.56892649e+00
 -1.45471397e+00  7.54448821e+00  5.99088481e-01 -2.24136204e+00  7.54448821e+00
  5.99088481e-01 -2.24136204e+00  7.54448821e+00  5.99088481e-01 -2.24136204e+00
  7.54448821e+00  5.99088481e-01 -2.24136204e+00  7.54448821e+00  5.99088481e-01
 -2.24136204e+00  7.54448821e+00  5.99088481e-01 -2.24136204e+00  7.54448821e+00
  5.99088481e-01 -2.24136204e+00  7.54448821e+00  5.99088481e-01 -2.24136204e+00
 -2.10161070e+00 -4.17815101e-01 -8.53600168e-01 -2.10161070e+00 -4.17815101e-01
 -8.53600168e-01 -2.10161070e+00 -4.17815101e-01 -8.53600168e-01 -2.10161070e+00
 -4.17815101e-01 -8.53600168e-01 -2.10161070e+00 -4.17815101e-01 -8.53600168e-01
 -2.10161070e+00 -4.17815101e-01 -8.53600168e-01 -2.10161070e+00 -4.17815101e-01
 -8.53600168e-01 -2.10161070e+00 -4.17815101e-01 -8.53600168e-01  3.87287837e+00
  3.11372476e+00 -1.18329267e+00  3.87287837e+00  3.11372476e+00 -1.18329267e+00
  3.87287837e+00  3.11372476e+00 -1.18329267e+00  3.87287837e+00  3.11372476e+00
 -1.18329267e+00  3.87287837e+00  3.11372476e+00 -1.18329267e+00  3.87287837e+00
  3.11372476e+00 -1.18329267e+00  3.87287837e+00  3.11372476e+00 -1.18329267e+00
  3.87287837e+00  3.11372476e+00 -1.18329267e+00  6.34508025e+00  2.94532886e+00
 -2.09904347e+00  6.34508025e+00  2.94532886e+00 -2.09904347e+00  6.34508025e+00
  2.94532886e+00 -2.09904347e+00  6.34508025e+00  2.94532886e+00 -2.09904347e+00
  6.34508025e+00  2.94532886e+00 -2.09904347e+00  6.34508025e+00  2.94532886e+00
 -2.09904347e+00  6.34508025e+00  2.94532886e+00 -2.09904347e+00  6.34508025e+00
  2.94532886e+00 -2.09904347e+00  7.17372766e+00 -3.40414798e+00 -1.54883800e+00
  7.17372766e+00 -3.40414798e+00 -1.54883800e+00  9.46659642e+00  4.59050945e-01
 -2.95247562e+00  9.46659642e+00  4.59050945e-01 -2.95247562e+00  2.82060681e+00
 -3.09017703e+00  9.62029915e-02  2.82060681e+00 -3.09017703e+00  9.62029915e-02
  7.32769614e+00  4.64765910e+00 -2.69713072e+00  7.32769614e+00  4.64765910e+00
 -2.69713072e+00  2.95492398e+00  4.94990031e+00 -1.07392531e+00  2.95492398e+00
  4.94990031e+00 -1.07392531e+00 -2.22967601e+00  2.31305335e-01 -3.69062981e+00
 -2.22967601e+00  2.31305335e-01 -3.69062981e+00 -2.22967601e+00  2.31305335e-01
 -3.69062981e+00 -2.22967601e+00  2.31305335e-01 -3.69062981e+00 -2.22967601e+00
  2.31305335e-01 -3.69062981e+00 -2.22967601e+00  2.31305335e-01 -3.69062981e+00
 -2.22967601e+00  2.31305335e-01 -3.69062981e+00 -2.22967601e+00  2.31305335e-01
 -3.69062981e+00 -3.07809791e-01  7.28045911e-01  3.43250051e+00 -3.07809791e-01
  7.28045911e-01  3.43250051e+00 -3.07809791e-01  7.28045911e-01  3.43250051e+00
 -3.07809791e-01  7.28045911e-01  3.43250051e+00 -3.07809791e-01  7.28045911e-01
  3.43250051e+00 -3.07809791e-01  7.28045911e-01  3.43250051e+00 -3.07809791e-01
  7.28045911e-01  3.43250051e+00 -3.07809791e-01  7.28045911e-01  3.43250051e+00
 -6.97522111e-01  3.19663529e+00  3.75998855e-01 -6.97522111e-01  3.19663529e+00
  3.75998855e-01 -7.17967001e-01  2.36040617e+00  4.99191863e+00 -7.17967001e-01
  2.36040617e+00  4.99191863e+00 -7.17967001e-01  2.36040617e+00  4.99191863e+00
 -7.17967001e-01  2.36040617e+00  4.99191863e+00 -7.17967001e-01  2.36040617e+00
  4.99191863e+00 -7.17967001e-01  2.36040617e+00  4.99191863e+00 -7.17967001e-01
  2.36040617e+00  4.99191863e+00 -7.17967001e-01  2.36040617e+00  4.99191863e+00
  1.08695698e-01 -1.71463738e+00  4.02921035e+00  1.08695698e-01 -1.71463738e+00
  4.02921035e+00  1.08695698e-01 -1.71463738e+00  4.02921035e+00  1.08695698e-01
 -1.71463738e+00  4.02921035e+00  1.08695698e-01 -1.71463738e+00  4.02921035e+00
  1.08695698e-01 -1.71463738e+00  4.02921035e+00  1.08695698e-01 -1.71463738e+00
  4.02921035e+00  1.08695698e-01 -1.71463738e+00  4.02921035e+00 -6.04572207e-02
 -2.33739787e+00  6.67096487e+00 -6.04572207e-02 -2.33739787e+00  6.67096487e+00
 -6.04572207e-02 -2.33739787e+00  6.67096487e+00 -6.04572207e-02 -2.33739787e+00
  6.67096487e+00 -6.04572207e-02 -2.33739787e+00  6.67096487e+00 -6.04572207e-02
 -2.33739787e+00  6.67096487e+00 -6.04572207e-02 -2.33739787e+00  6.67096487e+00
 -6.04572207e-02 -2.33739787e+00  6.67096487e+00 -1.95020920e+00 -1.90058298e+00
  7.38217520e+00 -1.95020920e+00 -1.90058298e+00  7.38217520e+00  1.34454771e+00
 -1.27703389e+00  7.75259379e+00  1.34454771e+00 -1.27703389e+00  7.75259379e+00
  3.10401909e-01 -4.36184521e+00  6.78096039e+00  3.10401909e-01 -4.36184521e+00
  6.78096039e+00 -4.55655843e+00 -1.61783668e-01  4.25999976e-01 -4.55655843e+00
 -1.61783668e-01  4.25999976e-01 -4.55655843e+00 -1.61783668e-01  4.25999976e-01
 -4.55655843e+00 -1.61783668e-01  4.25999976e-01 -4.55655843e+00 -1.61783668e-01
  4.25999976e-01 -4.55655843e+00 -1.61783668e-01  4.25999976e-01 -4.55655843e+00
 -1.61783668e-01  4.25999976e-01 -4.55655843e+00 -1.61783668e-01  4.25999976e-01