Generated by Psi4
     FORCE                           RHF                       TESTBAS
Number of atoms                            I               27
Charge                                     I                0
Multiplicity                               I                1
Number of electrons                        I              104
Number of alpha electrons                  I               52
Number of beta electrons                   I               52
Number of basis functions                  I              292
Number of independent functions            I              292
Atomic numbers                             I   N=          27
           6           6           6           1           1           7
           6           6           6           6           6           1
           1           1           6           1           1           1
           1           8           1           8           6           8
           1           1           1
Nuclear charges                            R   N=          27
  6.00000000e+00  6.00000000e+00  6.00000000e+00  1.00000000e+00  1.00000000e+00
  7.00000000e+00  6.00000000e+00  6.00000000e+00  6.00000000e+00  6.00000000e+00
  6.00000000e+00  1.00000000e+00  1.00000000e+00  1.00000000e+00  6.00000000e+00
  1.00000000e+00  1.00000000e+00  1.00000000e+00  1.00000000e+00  8.00000000e+00
  1.00000000e+00  8.00000000e+00  6.00000000e+00  8.00000000e+00  1.00000000e+00
  1.00000000e+00  1.00000000e+00
Current cartesian coordinates              R   N=          81
  6.23876754e-01 -9.96024007e-01  9.85155886e-01 -1.05831543e+00 -2.09169570e+00
  3.02795617e+00 -3.46205030e+00 -5.20472676e-01  3.57366414e+00  3.40657881e-02
 -2.28455713e+00  4.78360915e+00 -1.66473350e+00 -3.99989827e+00  2.48940631e+00
 -5.06581509e+00 -2.09349765e+00  5.22928081e+00  2.90705826e+00  1.99248394e-01
  1.58503952e+00  4.50273408e+00  1.23919757e+00 -2.76799607e-01  3.70809398e+00
  1.03745022e+00 -2.75238933e+00  1.44266623e+00 -1.50772977e-01 -3.37932860e+00
 -1.27782788e-01 -1.18723601e+00 -1.57359904e+00  3.47801791e+00  3.31893687e-01
  3.55370524e+00 -1.86869886e+00 -2.13453899e+00 -2.10838550e+00  6.27840552e+00
  2.14244198e+00  2.10196443e-01 -2.88905107e+00  2.10430408e+00  4.65638810e+00
 -4.52632218e+00 -3.09773761e-01  1.80681470e+00 -1.75126656e+00  1.95298125e+00
  6.38822743e+00 -4.64562022e+00  3.09182461e+00  5.11745079e+00 -1.82708985e+00
  3.25114885e+00  3.29896919e+00 -7.38966533e+00 -7.33469518e-01  5.74015700e+00
 -4.23409577e+00 -2.17506443e+00  6.97317256e+00  1.16908505e+00 -1.82154438e-01
 -5.97033942e+00  3.09282621e+00  1.48475437e+00 -6.89970084e+00  4.92783476e+00
  1.78817743e+00 -4.93119539e+00 -8.67401999e+00 -1.91648326e+00  5.18244789e+00
  2.24600677e+00  3.33008446e+00 -7.34177026e+00  3.99202104e+00  6.38870291e-01
 -8.55129519e+00
Integer atomic weights                     I   N=          27
          12          12          12           1           1          14
          12          12          12          12          12           1
           1           1          12           1           1           1
           1          15           1          15          12          15
           1           1           1
Real atomic weights                        R   N=          27
  1.20000000e+01  1.20000000e+01  1.20000000e+01  1.00782503e+00  1.00782503e+00
  1.40030740e+01  1.20000000e+01  1.20000000e+01  1.20000000e+01  1.20000000e+01
  1.20000000e+01  1.00782503e+00  1.00782503e+00  1.00782503e+00  1.20000000e+01
  1.00782503e+00  1.00782503e+00  1.00782503e+00  1.00782503e+00  1.59949146e+01
  1.00782503e+00  1.59949146e+01  1.20000000e+01  1.59949146e+01  1.00782503e+00
  1.00782503e+00  1.00782503e+00
Number of primitive shells                 I              290
Number of contracted shells                I              138
Pure/Cartesian d shells                    I                1
Pure/Cartesian f shells                    I                1
Highest angular momentum                   I                2
Largest degree of contraction              I                6
Shell types                                I   N=         138
           0           0           1           0           1           2
           0           1           0           0           1           0
           1           2           0           1           0           0
           1           0           1           2           0           1
           0           0           0           0           0           0
           1           0           1           2           0           1
           0           0           1           0           1           2
           0           1           0           0           1           0
           1           2           0           1           0           0
           1           0           1           2           0           1
           0           0           1           0           1           2
           0           1           0           0           1           0
           1           2           0           1           0           0
           0           0           0           0           0           0
           1           0           1           2           0           1
           0           0           0           0           0           0
           0           0           0           0           1           0
           1           2           0           1           0           0
           0           0           1           0           1           2
           0           1           0           0           1           0
           1           2           0           1           0           0
           1           0           1           2           0           1
           0           0           0           0           0           0
Number of primitives per shell             I   N=         138
           6           3           3           1           1           1
           1           1           6           3           3           1
           1           1           1           1           6           3
           3           1           1           1           1           1
           3           1           3           1           6           3
           3           1           1           1           1           1
           6           3           3           1           1           1
           1           1           6           3           3           1
           1           1           1           1           6           3
           3           1           1           1           1           1
           6           3           3           1           1           1
           1           1           6           3           3           1
           1           1           1           1           3           1
           3           1           3           1           6           3
           3           1           1           1           1           1
           3           1           3           1           3           1
           3           1           6           3           3           1
           1           1           1           1           3           1
           6           3           3           1           1           1
           1           1           6           3           3           1
           1           1           1           1           6           3
           3           1           1           1           1           1
           3           1           3           1           3           1
Shell to atom map                          I   N=         138
           1           1           1           1           1           1
           1           1           2           2           2           2
           2           2           2           2           3           3
           3           3           3           3           3           3
           4           4           5           5           6           6
           6           6           6           6           6           6
           7           7           7           7           7           7
           7           7           8           8           8           8
           8           8           8           8           9           9
           9           9           9           9           9           9
          10          10          10          10          10          10
          10          10          11          11          11          11
          11          11          11          11          12          12
          13          13          14          14          15          15
          15          15          15          15          15          15
          16          16          17          17          18          18
          19          19          20          20          20          20
          20          20          20          20          21          21
          22          22          22          22          22          22
          22          22          23          23          23          23
          23          23          23          23          24          24
          24          24          24          24          24          24
          25          25          26          26          27          27
Primitive exponents                        R   N=         290
  3.04752490e+03  4.57369510e+02  1.03948690e+02  2.92101550e+01  9.28666300e+00
  3.16392700e+00  7.86827240e+00  1.88128850e+00  5.44249300e-01  7.86827240e+00
  1.88128850e+00  5.44249300e-01  1.68714400e-01  1.68714400e-01  8.00000000e-01
  4.38000000e-02  4.38000000e-02  3.04752490e+03  4.57369510e+02  1.03948690e+02
  2.92101550e+01  9.28666300e+00  3.16392700e+00  7.86827240e+00  1.88128850e+00
  5.44249300e-01  7.86827240e+00  1.88128850e+00  5.44249300e-01  1.68714400e-01
  1.68714400e-01  8.00000000e-01  4.38000000e-02  4.38000000e-02  3.04752490e+03
  4.57369510e+02  1.03948690e+02  2.92101550e+01  9.28666300e+00  3.16392700e+00
  7.86827240e+00  1.88128850e+00  5.44249300e-01  7.86827240e+00  1.88128850e+00
  5.44249300e-01  1.68714400e-01  1.68714400e-01  8.00000000e-01  4.38000000e-02
  4.38000000e-02  1.87311370e+01  2.82539370e+00  6.40121700e-01  1.61277800e-01
  1.87311370e+01  2.82539370e+00  6.40121700e-01  1.61277800e-01  4.17351100e+03
  6.27457900e+02  1.42902100e+02  4.02343300e+01  1.28202100e+01  4.39043700e+00
  1.16263580e+01  2.71628000e+00  7.72218000e-01  1.16263580e+01  2.71628000e+00
  7.72218000e-01  2.12031300e-01  2.12031300e-01  8.00000000e-01  6.39000000e-02
  6.39000000e-02  3.04752490e+03  4.57369510e+02  1.03948690e+02  2.92101550e+01
  9.28666300e+00  3.16392700e+00  7.86827240e+00  1.88128850e+00  5.44249300e-01
  7.86827240e+00  1.88128850e+00  5.44249300e-01  1.68714400e-01  1.68714400e-01
  8.00000000e-01  4.38000000e-02  4.38000000e-02  3.04752490e+03  4.57369510e+02
  1.03948690e+02  2.92101550e+01  9.28666300e+00  3.16392700e+00  7.86827240e+00
  1.88128850e+00  5.44249300e-01  7.86827240e+00  1.88128850e+00  5.44249300e-01
  1.68714400e-01  1.68714400e-01  8.00000000e-01  4.38000000e-02  4.38000000e-02
  3.04752490e+03  4.57369510e+02  1.03948690e+02  2.92101550e+01  9.28666300e+00
  3.16392700e+00  7.86827240e+00  1.88128850e+00  5.44249300e-01  7.86827240e+00
  1.88128850e+00  5.44249300e-01  1.68714400e-01  1.68714400e-01  8.00000000e-01
  4.38000000e-02  4.38000000e-02  3.04752490e+03  4.57369510e+02  1.03948690e+02
  2.92101550e+01  9.28666300e+00  3.16392700e+00  7.86827240e+00  1.88128850e+00
  5.44249300e-01  7.86827240e+00  1.88128850e+00  5.44249300e-01  1.68714400e-01
  1.68714400e-01  8.00000000e-01  4.38000000e-02  4.38000000e-02  3.04752490e+03
  4.57369510e+02  1.03948690e+02  2.92101550e+01  9.28666300e+00  3.16392700e+00
  7.86827240e+00  1.88128850e+00  5.44249300e-01  7.86827240e+00  1.88128850e+00
  5.44249300e-01  1.68714400e-01  1.68714400e-01  8.00000000e-01  4.38000000e-02
  4.38000000e-02  1.87311370e+01  2.82539370e+00  6.40121700e-01  1.61277800e-01
  1.87311370e+01  2.82539370e+00  6.40121700e-01  1.61277800e-01  1.87311370e+01
  2.82539370e+00  6.40121700e-01  1.61277800e-01  3.04752490e+03  4.57369510e+02
  1.03948690e+02  2.92101550e+01  9.28666300e+00  3.16392700e+00  7.86827240e+00
  1.88128850e+00  5.44249300e-01  7.86827240e+00  1.88128850e+00  5.44249300e-01
  1.68714400e-01  1.68714400e-01  8.00000000e-01  4.38000000e-02  4.38000000e-02
  1.87311370e+01  2.82539370e+00  6.40121700e-01  1.61277800e-01  1.87311370e+01
  2.82539370e+00  6.40121700e-01  1.61277800e-01  1.87311370e+01  2.82539370e+00
  6.40121700e-01  1.61277800e-01  1.87311370e+01  2.82539370e+00  6.40121700e-01
  1.61277800e-01  5.48467170e+03  8.25234950e+02  1.88046960e+02  5.29645000e+01
  1.68975700e+01  5.79963530e+00  1.55396160e+01  3.59993360e+00  1.01376180e+00
  1.55396160e+01  3.59993360e+00  1.01376180e+00  2.70005800e-01  2.70005800e-01
  8.00000000e-01  8.45000000e-02  8.45000000e-02  1.87311370e+01  2.82539370e+00
  6.40121700e-01  1.61277800e-01  5.48467170e+03  8.25234950e+02  1.88046960e+02
  5.29645000e+01  1.68975700e+01  5.79963530e+00  1.55396160e+01  3.59993360e+00
  1.01376180e+00  1.55396160e+01  3.59993360e+00  1.01376180e+00  2.70005800e-01
  2.70005800e-01  8.00000000e-01  8.45000000e-02  8.45000000e-02  3.04752490e+03
  4.57369510e+02  1.03948690e+02  2.92101550e+01  9.28666300e+00  3.16392700e+00
  7.86827240e+00  1.88128850e+00  5.44249300e-01  7.86827240e+00  1.88128850e+00
  5.44249300e-01  1.68714400e-01  1.68714400e-01  8.00000000e-01  4.38000000e-02
  4.38000000e-02  5.48467170e+03  8.25234950e+02  1.88046960e+02  5.29645000e+01
  1.68975700e+01  5.79963530e+00  1.55396160e+01  3.59993360e+00  1.01376180e+00
  1.55396160e+01  3.59993360e+00  1.01376180e+00  2.70005800e-01  2.70005800e-01
  8.00000000e-01  8.45000000e-02  8.45000000e-02  1.87311370e+01  2.82539370e+00
  6.40121700e-01  1.61277800e-01  1.87311370e+01  2.82539370e+00  6.40121700e-01
  1.61277800e-01  1.87311370e+01  2.82539370e+00  6.40121700e-01  1.61277800e-01
Contraction coefficients                   R   N=         290
  1.83470016e-03  1.40373012e-02  6.88426061e-02  2.32184421e-01  4.67941342e-01
  3.62312032e-01 -1.19332409e-01 -1.60854212e-01  1.14345648e+00  6.89990956e-02
  3.16423980e-01  7.44308252e-01  1.00000000e+00  1.00000000e+00  1.00000000e+00
  1.00000000e+00  1.00000000e+00  1.83470016e-03  1.40373012e-02  6.88426061e-02
  2.32184421e-01  4.67941342e-01  3.62312032e-01 -1.19332409e-01 -1.60854212e-01
  1.14345648e+00  6.89990956e-02  3.16423980e-01  7.44308252e-01  1.00000000e+00
  1.00000000e+00  1.00000000e+00  1.00000000e+00  1.00000000e+00  1.83470016e-03
  1.40373012e-02  6.88426061e-02  2.32184421e-01  4.67941342e-01  3.62312032e-01
 -1.19332409e-01 -1.60854212e-01  1.14345648e+00  6.89990956e-02  3.16423980e-01
  7.44308252e-01  1.00000000e+00  1.00000000e+00  1.00000000e+00  1.00000000e+00
  1.00000000e+00  3.34945995e-02  2.34726947e-01  8.13757318e-01  1.00000000e+00
  3.34945995e-02  2.34726947e-01  8.13757318e-01  1.00000000e+00  1.83479944e-03
  1.39949958e-02  6.85869792e-02  2.32240930e-01  4.69069858e-01  3.60454891e-01
 -1.14961023e-01 -1.69118034e-01  1.14585223e+00  6.75800232e-02  3.23907111e-01
  7.40895255e-01  1.00000000e+00  1.00000000e+00  1.00000000e+00  1.00000000e+00
  1.00000000e+00  1.83470016e-03  1.40373012e-02  6.88426061e-02  2.32184421e-01
  4.67941342e-01  3.62312032e-01 -1.19332409e-01 -1.60854212e-01  1.14345648e+00
  6.89990956e-02  3.16423980e-01  7.44308252e-01  1.00000000e+00  1.00000000e+00
  1.00000000e+00  1.00000000e+00  1.00000000e+00  1.83470016e-03  1.40373012e-02
  6.88426061e-02  2.32184421e-01  4.67941342e-01  3.62312032e-01 -1.19332409e-01
 -1.60854212e-01  1.14345648e+00  6.89990956e-02  3.16423980e-01  7.44308252e-01
  1.00000000e+00  1.00000000e+00  1.00000000e+00  1.00000000e+00  1.00000000e+00
  1.83470016e-03  1.40373012e-02  6.88426061e-02  2.32184421e-01  4.67941342e-01
  3.62312032e-01 -1.19332409e-01 -1.60854212e-01  1.14345648e+00  6.89990956e-02
  3.16423980e-01  7.44308252e-01  1.00000000e+00  1.00000000e+00  1.00000000e+00
  1.00000000e+00  1.00000000e+00  1.83470016e-03  1.40373012e-02  6.88426061e-02
  2.32184421e-01  4.67941342e-01  3.62312032e-01 -1.19332409e-01 -1.60854212e-01
  1.14345648e+00  6.89990956e-02  3.16423980e-01  7.44308252e-01  1.00000000e+00
  1.00000000e+00  1.00000000e+00  1.00000000e+00  1.00000000e+00  1.83470016e-03
  1.40373012e-02  6.88426061e-02  2.32184421e-01  4.67941342e-01  3.62312032e-01
 -1.19332409e-01 -1.60854212e-01  1.14345648e+00  6.89990956e-02  3.16423980e-01
  7.44308252e-01  1.00000000e+00  1.00000000e+00  1.00000000e+00  1.00000000e+00
  1.00000000e+00  3.34945995e-02  2.34726947e-01  8.13757318e-01  1.00000000e+00
  3.34945995e-02  2.34726947e-01  8.13757318e-01  1.00000000e+00  3.34945995e-02
  2.34726947e-01  8.13757318e-01  1.00000000e+00  1.83470016e-03  1.40373012e-02
  6.88426061e-02  2.32184421e-01  4.67941342e-01  3.62312032e-01 -1.19332409e-01
 -1.60854212e-01  1.14345648e+00  6.89990956e-02  3.16423980e-01  7.44308252e-01
  1.00000000e+00  1.00000000e+00  1.00000000e+00  1.00000000e+00  1.00000000e+00
  3.34945995e-02  2.34726947e-01  8.13757318e-01  1.00000000e+00  3.34945995e-02
  2.34726947e-01  8.13757318e-01  1.00000000e+00  3.34945995e-02  2.34726947e-01
  8.13757318e-01  1.00000000e+00  3.34945995e-02  2.34726947e-01  8.13757318e-01
  1.00000000e+00  1.83109981e-03  1.39500985e-02  6.84450927e-02  2.32714275e-01
  4.70192950e-01  3.58520862e-01 -1.10777504e-01 -1.48026305e-01  1.13076704e+00
  7.08742995e-02  3.39752798e-01  7.27158595e-01  1.00000000e+00  1.00000000e+00
  1.00000000e+00  1.00000000e+00  1.00000000e+00  3.34945995e-02  2.34726947e-01
  8.13757318e-01  1.00000000e+00  1.83109981e-03  1.39500985e-02  6.84450927e-02
  2.32714275e-01  4.70192950e-01  3.58520862e-01 -1.10777504e-01 -1.48026305e-01
  1.13076704e+00  7.08742995e-02  3.39752798e-01  7.27158595e-01  1.00000000e+00
  1.00000000e+00  1.00000000e+00  1.00000000e+00  1.00000000e+00  1.83470016e-03
  1.40373012e-02  6.88426061e-02  2.32184421e-01  4.67941342e-01  3.62312032e-01
 -1.19332409e-01 -1.60854212e-01  1.14345648e+00  6.89990956e-02  3.16423980e-01
  7.44308252e-01  1.00000000e+00  1.00000000e+00  1.00000000e+00  1.00000000e+00
  1.00000000e+00  1.83109981e-03  1.39500985e-02  6.84450927e-02  2.32714275e-01
  4.70192950e-01  3.58520862e-01 -1.10777504e-01 -1.48026305e-01  1.13076704e+00
  7.08742995e-02  3.39752798e-01  7.27158595e-01  1.00000000e+00  1.00000000e+00
  1.00000000e+00  1.00000000e+00  1.00000000e+00  3.34945995e-02  2.34726947e-01
  8.13757318e-01  1.00000000e+00  3.34945995e-02  2.34726947e-01  8.13757318e-01
  1.00000000e+00  3.34945995e-02  2.34726947e-01  8.13757318e-01  1.00000000e+00
Coordinates of each shell                  R   N=         414
  6.23876754e-01 -9.96024007e-01  9.85155886e-01  6.23876754e-01 -9.96024007e-01
  9.85155886e-01  6.23876754e-01 -9.96024007e-01  9.85155886e-01  6.23876754e-01
 -9.96024007e-01  9.85155886e-01  6.23876754e-01 -9.96024007e-01  9.85155886e-01
  6.23876754e-01 -9.96024007e-01  9.85155886e-01  6.23876754e-01 -9.96024007e-01
  9.85155886e-01  6.23876754e-01 -9.96024007e-01  9.85155886e-01 -1.05831543e+00
 -2.09169570e+00  3.02795617e+00 -1.05831543e+00 -2.09169570e+00  3.02795617e+00
 -1.05831543e+00 -2.09169570e+00  3.02795617e+00 -1.05831543e+00 -2.09169570e+00
  3.02795617e+00 -1.05831543e+00 -2.09169570e+00  3.02795617e+00 -1.05831543e+00
 -2.09169570e+00  3.02795617e+00 -1.05831543e+00 -2.09169570e+00  3.02795617e+00
 -1.05831543e+00 -2.09169570e+00  3.02795617e+00 -3.46205030e+00 -5.20472676e-01
  3.57366414e+00 -3.46205030e+00 -5.20472676e-01  3.57366414e+00 -3.46205030e+00
 -5.20472676e-01  3.57366414e+00 -3.46205030e+00 -5.20472676e-01  3.57366414e+00
 -3.46205030e+00 -5.20472676e-01  3.57366414e+00 -3.46205030e+00 -5.20472676e-01
  3.57366414e+00 -3.46205030e+00 -5.20472676e-01  3.57366414e+00 -3.46205030e+00
 -5.20472676e-01  3.57366414e+00  3.40657881e-02 -2.28455713e+00  4.78360915e+00
  3.40657881e-02 -2.28455713e+00  4.78360915e+00 -1.66473350e+00 -3.99989827e+00
  2.48940631e+00 -1.66473350e+00 -3.99989827e+00  2.48940631e+00 -5.06581509e+00
 -2.09349765e+00  5.22928081e+00 -5.06581509e+00 -2.09349765e+00  5.22928081e+00
 -5.06581509e+00 -2.09349765e+00  5.22928081e+00 -5.06581509e+00 -2.09349765e+00
  5.22928081e+00 -5.06581509e+00 -2.09349765e+00  5.22928081e+00 -5.06581509e+00
 -2.09349765e+00  5.22928081e+00 -5.06581509e+00 -2.09349765e+00  5.22928081e+00
 -5.06581509e+00 -2.09349765e+00  5.22928081e+00  2.90705826e+00  1.99248394e-01
  1.58503952e+00  2.90705826e+00  1.99248394e-01  1.58503952e+00  2.90705826e+00
  1.99248394e-01  1.58503952e+00  2.90705826e+00  1.99248394e-01  1.58503952e+00
  2.90705826e+00  1.99248394e-01  1.58503952e+00  2.90705826e+00  1.99248394e-01
  1.58503952e+00  2.90705826e+00  1.99248394e-01  1.58503952e+00  2.90705826e+00
  1.99248394e-01  1.58503952e+00  4.50273408e+00  1.23919757e+00 -2.76799607e-01
  4.50273408e+00  1.23919757e+00 -2.76799607e-01  4.50273408e+00  1.23919757e+00
 -2.76799607e-01  4.50273408e+00  1.23919757e+00 -2.76799607e-01  4.50273408e+00
  1.23919757e+00 -2.76799607e-01  4.50273408e+00  1.23919757e+00 -2.76799607e-01
  4.50273408e+00  1.23919757e+00 -2.76799607e-01  4.50273408e+00  1.23919757e+00
 -2.76799607e-01  3.70809398e+00  1.03745022e+00 -2.75238933e+00  3.70809398e+00
  1.03745022e+00 -2.75238933e+00  3.70809398e+00  1.03745022e+00 -2.75238933e+00
  3.70809398e+00  1.03745022e+00 -2.75238933e+00  3.70809398e+00  1.03745022e+00
 -2.75238933e+00  3.70809398e+00  1.03745022e+00 -2.75238933e+00  3.70809398e+00
  1.03745022e+00 -2.75238933e+00  3.70809398e+00  1.03745022e+00 -2.75238933e+00
  1.44266623e+00 -1.50772977e-01 -3.37932860e+00  1.44266623e+00 -1.50772977e-01
 -3.37932860e+00  1.44266623e+00 -1.50772977e-01 -3.37932860e+00  1.44266623e+00
 -1.50772977e-01 -3.37932860e+00  1.44266623e+00 -1.50772977e-01 -3.37932860e+00
  1.44266623e+00 -1.50772977e-01 -3.37932860e+00  1.44266623e+00 -1.50772977e-01
 -3.37932860e+00  1.44266623e+00 -1.50772977e-01 -3.37932860e+00 -1.27782788e-01
 -1.18723601e+00 -1.57359904e+00 -1.27782788e-01 -1.18723601e+00 -1.57359904e+00
 -1.27782788e-01 -1.18723601e+00 -1.57359904e+00 -1.27782788e-01 -1.18723601e+00
 -1.57359904e+00 -1.27782788e-01 -1.18723601e+00 -1.57359904e+00 -1.27782788e-01
 -1.18723601e+00 -1.57359904e+00 -1.27782788e-01 -1.18723601e+00 -1.57359904e+00
 -1.27782788e-01 -1.18723601e+00 -1.57359904e+00  3.47801791e+00  3.31893687e-01
  3.55370524e+00  3.47801791e+00  3.31893687e-01  3.55370524e+00 -1.86869886e+00
 -2.13453899e+00 -2.10838550e+00 -1.86869886e+00 -2.13453899e+00 -2.10838550e+00
  6.27840552e+00  2.14244198e+00  2.10196443e-01  6.27840552e+00  2.14244198e+00
  2.10196443e-01 -2.88905107e+00  2.10430408e+00  4.65638810e+00 -2.88905107e+00
  2.10430408e+00  4.65638810e+00 -2.88905107e+00  2.10430408e+00  4.65638810e+00
 -2.88905107e+00  2.10430408e+00  4.65638810e+00 -2.88905107e+00  2.10430408e+00
  4.65638810e+00 -2.88905107e+00  2.10430408e+00  4.65638810e+00 -2.88905107e+00
  2.10430408e+00  4.65638810e+00 -2.88905107e+00  2.10430408e+00  4.65638810e+00
 -4.52632218e+00 -3.09773761e-01  1.80681470e+00 -4.52632218e+00 -3.09773761e-01
  1.80681470e+00 -1.75126656e+00  1.95298125e+00  6.38822743e+00 -1.75126656e+00
  1.95298125e+00  6.38822743e+00 -4.64562022e+00  3.09182461e+00  5.11745079e+00
 -4.64562022e+00  3.09182461e+00  5.11745079e+00 -1.82708985e+00  3.25114885e+00
  3.29896919e+00 -1.82708985e+00  3.25114885e+00  3.29896919e+00 -7.38966533e+00
 -7.33469518e-01  5.74015700e+00 -7.38966533e+00 -7.33469518e-01  5.74015700e+00
 -7.38966533e+00 -7.33469518e-01  5.74015700e+00 -7.38966533e+00 -7.33469518e-01
  5.74015700e+00 -7.38966533e+00 -7.33469518e-01  5.74015700e+00 -7.38966533e+00
 -7.33469518e-01  5.74015700e+00 -7.38966533e+00 -7.33469518e-01  5.74015700e+00
 -7.38966533e+00 -7.33469518e-01  5.74015700e+00 -4.23409577e+00 -2.17506443e+00
  6.97317256e+00 -4.23409577e+00 -2.17506443e+00  6.97317256e+00  1.16908505e+00
 -1.82154438e-01 -5.97033942e+00  1.16908505e+00 -1.82154438e-01 -5.97033942e+00
  1.16908505e+00 -1.82154438e-01 -5.97033942e+00  1.16908505e+00 -1.82154438e-01
 -5.97033942e+00  1.16908505e+00 -1.82154438e-01 -5.97033942e+00  1.16908505e+00
 -1.82154438e-01 -5.97033942e+00  1.16908505e+00 -1.82154438e-01 -5.97033942e+00
  1.16908505e+00 -1.82154438e-01 -5.97033942e+00  3.09282621e+00  1.48475437e+00
 -6.89970084e+00  3.09282621e+00  1.48475437e+00 -6.89970084e+00  3.09282621e+00
  1.48475437e+00 -6.89970084e+00  3.09282621e+00  1.48475437e+00 -6.89970084e+00
  3.09282621e+00  1.48475437e+00 -6.89970084e+00  3.09282621e+00  1.48475437e+00
 -6.89970084e+00  3.09282621e+00  1.48475437e+00 -6.89970084e+00  3.09282621e+00
  1.48475437e+00 -6.89970084e+00  4.92783476e+00  1.78817743e+00 -4.93119539e+00
  4.92783476e+00  1.78817743e+00 -4.93119539e+00  4.92783476e+00  1.78817743e+00
 -4.93119539e+00  4.92783476e+00  1.78817743e+00 -4.93119539e+00  4.92783476e+00
  1.78817743e+00 -4.93119539e+00  4.92783476e+00  1.78817743e+00 -4.93119539e+00
  4.92783476e+00  1.78817743e+00 -4.93119539e+00  4.92783476e+00  1.78817743e+00
 -4.93119539e+00 -8.67401999e+00 -1.91648326e+00  5.18244789e+00 -8.67401999e+00
 -1.91648326e+00  5.18244789e+00  2.24600677e+00  3.33008446e+00 -7.34177026e+00
  2.24600677e+00  3.33008446e+00 -7.34177026e+00  3.99202104e+00  6.38870291e-01
 -8.55129519e+00  3.99202104e+00  6.38870291e-01 -8.55129519e+00
Total Energy                               R     -6.692579551091907e+02
Alpha Orbital Energies                     R   N=         292
 -1.92051140e+01 -1.92045858e+01 -1.91841328e+01 -1.43813597e+01 -1.03137051e+01
 -1.02584769e+01 -1.02568080e+01 -1.02237103e+01 -1.02084786e+01 -1.02056365e+01
 -1.02034543e+01 -1.01989971e+01 -1.01977001e+01 -1.01756894e+01 -1.13543496e+00
 -1.06117811e+00 -1.04378419e+00 -8.73914858e-01 -8.56552991e-01 -7.86798696e-01
 -7.63107195e-01 -7.34527049e-01 -7.03392924e-01 -6.71424259e-01 -6.32272324e-01
 -6.19916568e-01 -5.90998561e-01 -5.32846133e-01 -5.31349137e-01 -5.26022482e-01
 -5.14380642e-01 -4.88643039e-01 -4.74665994e-01 -4.63057942e-01 -4.55161403e-01
 -4.49635170e-01 -4.28921692e-01 -4.16341102e-01 -4.06149916e-01 -3.97408210e-01
 -3.96245814e-01 -3.82909655e-01 -3.74752815e-01 -3.66312618e-01 -3.58273685e-01
 -3.57577113e-01 -3.43506955e-01 -3.15862967e-01 -2.97739333e-01 -2.54696106e-01
 -2.50363825e-01 -2.16978372e-01 -1.95585708e-02 -4.95429951e-03  3.23353390e-03
  1.04919796e-02  1.48508056e-02  2.24576196e-02  2.50604897e-02  3.17631397e-02
  3.43905360e-02  4.16324645e-02  4.52886828e-02  5.27530446e-02  5.76713028e-02
  6.28116266e-02  7.03644737e-02  8.49277838e-02  8.97509755e-02  9.10394909e-02
  9.81780732e-02  1.01136279e-01  1.05782076e-01  1.15806450e-01  1.21826418e-01
  1.23275649e-01  1.31262499e-01  1.33847010e-01  1.37168439e-01  1.40583108e-01
  1.43795297e-01  1.49140329e-01  1.53946699e-01  1.58354312e-01  1.62004019e-01
  1.65309721e-01  1.68637383e-01  1.75207974e-01  1.83284764e-01  1.88080416e-01
  1.92524074e-01  1.99380348e-01  2.01406334e-01  2.06295938e-01  2.09117522e-01
  2.15427085e-01  2.19722602e-01  2.22679685e-01  2.24655162e-01  2.32305236e-01
  2.35015277e-01  2.44880297e-01  2.45559009e-01  2.49273145e-01  2.57961187e-01
  2.60741785e-01  2.66324732e-01  2.70837894e-01  2.75511280e-01  2.81314190e-01
  2.85389545e-01  2.92769500e-01  2.94354305e-01  2.97857309e-01  3.01503559e-01
  3.04867646e-01  3.08533422e-01  3.12094052e-01  3.19405735e-01  3.23398587e-01
  3.24253113e-01  3.34861824e-01  3.40686539e-01  3.46574405e-01  3.59142025e-01
  3.64563233e-01  3.73126910e-01  3.77377414e-01  3.96675502e-01  4.04860216e-01
  4.06409342e-01  4.12965556e-01  4.33761822e-01  4.39742397e-01  4.52493411e-01
  4.63374744e-01  4.70447507e-01  5.82063635e-01  6.17015049e-01  6.45413366e-01
  6.49958822e-01  6.55137179e-01  6.85010734e-01  6.89075306e-01  6.93184866e-01
  7.07061594e-01  7.10525396e-01  7.20158395e-01  7.40797341e-01  7.53250202e-01
  7.59090923e-01  7.72525728e-01  7.82803295e-01  7.84337963e-01  7.91033169e-01
  8.01088938e-01  8.09317254e-01  8.33921129e-01  8.45727577e-01  8.78243921e-01
  8.88333351e-01  8.90784208e-01  9.01626482e-01  9.30637117e-01  9.43606486e-01
  9.49691683e-01  9.74298234e-01  9.81400348e-01  9.86850108e-01  1.01645518e+00
  1.02324217e+00  1.04060952e+00  1.05057182e+00  1.06324854e+00  1.06712289e+00
  1.08895894e+00  1.08996212e+00  1.10189254e+00  1.10778232e+00  1.13550208e+00
  1.14418462e+00  1.15717418e+00  1.16625934e+00  1.17920004e+00  1.19466215e+00
  1.20696641e+00  1.21798055e+00  1.22316338e+00  1.24231596e+00  1.25184295e+00
  1.25731642e+00  1.25961595e+00  1.27092260e+00  1.27771916e+00  1.28759485e+00
  1.31443168e+00  1.32232784e+00  1.35759724e+00  1.37338470e+00  1.39522686e+00
  1.40922784e+00  1.41775216e+00  1.44478495e+00  1.46419746e+00  1.48078840e+00
  1.48720894e+00  1.50234404e+00  1.51895048e+00  1.54173813e+00  1.58350735e+00
  1.59623851e+00  1.60826177e+00  1.62666550e+00  1.70655720e+00  1.74740710e+00
  1.76351603e+00  1.77456045e+00  1.78551935e+00  1.81183496e+00  1.82936218e+00
  1.83583220e+00  1.86067507e+00  1.87292410e+00  1.87751487e+00  1.90332511e+00
  1.91734184e+00  1.92926283e+00  1.95061355e+00  1.95357916e+00  1.97826197e+00
  1.99136303e+00  1.99423202e+00  2.01389712e+00  2.03294344e+00  2.03808941e+00
  2.04497021e+00  2.07509291e+00  2.10649748e+00  2.12072171e+00  2.14102668e+00
  2.17359482e+00  2.20169331e+00  2.20286036e+00  2.22006678e+00  2.25288137e+00
  2.26269829e+00  2.29796069e+00  2.30952508e+00  2.31431902e+00  2.32874201e+00
  2.34517983e+00  2.35684988e+00  2.38181487e+00  2.44512672e+00  2.46745072e+00
  2.50501493e+00  2.53942589e+00  2.54822814e+00  2.55400715e+00  2.57041777e+00