Generated by Psi4
     FORCE                           RHF                       TESTBAS
Number of atoms                            I               32
Charge                                     I                0
Multiplicity                               I                1
Number of electrons                        I              112
Number of alpha electrons                  I               56
Number of beta electrons                   I               56
Number of basis functions                  I              319
Number of independent functions            I              319
Atomic numbers                             I   N=          32
           6           6           6           1           1           7
           6           6           6           6           6           1
           1           1           6           1           1           1
           1           6           1           6           1           1
           1           1           1           8           6           8
           1           1
Nuclear charges                            R   N=          32
  6.00000000e+00  6.00000000e+00  6.00000000e+00  1.00000000e+00  1.00000000e+00
  7.00000000e+00  6.00000000e+00  6.00000000e+00  6.00000000e+00  6.00000000e+00
  6.00000000e+00  1.00000000e+00  1.00000000e+00  1.00000000e+00  6.00000000e+00
  1.00000000e+00  1.00000000e+00  1.00000000e+00  1.00000000e+00  6.00000000e+00
  1.00000000e+00  6.00000000e+00  1.00000000e+00  1.00000000e+00  1.00000000e+00
  1.00000000e+00  1.00000000e+00  8.00000000e+00  6.00000000e+00  8.00000000e+00
  1.00000000e+00  1.00000000e+00
Current cartesian coordinates              R   N=          96
  1.21978472e+00 -7.93381586e-01  5.07105285e-01 -4.12506186e-01 -1.89950187e+00
  2.58345620e+00 -2.80294649e+00 -3.42603136e-01  3.23336849e+00  7.25315498e-01
 -2.11672215e+00  4.30811097e+00 -1.05102119e+00 -3.79852181e+00  2.05225247e+00
 -4.38060514e+00 -1.86804158e+00  4.93792659e+00  3.55915898e+00  3.20290825e-01
  1.04369291e+00  5.10458805e+00  1.37666925e+00 -8.52129251e-01  4.20628196e+00
  1.26928172e+00 -3.29776984e+00  1.88711125e+00  1.63457013e-01 -3.86385190e+00
  3.61203485e-01 -8.81518719e-01 -2.02489064e+00  4.21764339e+00  3.71230610e-01
  2.98886228e+00 -1.43128268e+00 -1.75425900e+00 -2.51423709e+00  6.91748095e+00
  2.22917514e+00 -4.12639455e-01 -2.13671371e+00  2.29992885e+00  4.24944740e+00
 -3.90490428e+00 -1.12186309e-01  1.48713715e+00 -1.04501686e+00  2.14958424e+00
  6.00990177e+00 -3.83817702e+00  3.40930112e+00  4.64782656e+00 -9.95621289e-01
  3.36267791e+00  2.88779950e+00 -6.94131397e+00 -9.29037645e-01  5.40157859e+00
 -3.46509295e+00 -2.10979374e+00  6.61900475e+00 -8.43850452e+00 -2.79265495e+00
  7.02381139e+00 -7.86617474e+00 -7.16966080e-01  3.55552084e+00 -6.98297238e+00
  9.53099182e-01  6.30851196e+00 -8.52363560e+00 -4.65025774e+00  6.11337251e+00
 -1.03720799e+01 -2.11079681e+00  7.32843217e+00 -7.55917958e+00 -3.03371745e+00
  8.88841734e+00  1.45463757e+00  2.94777449e-01 -6.42738494e+00  3.62667003e+00
  1.51499097e+00 -7.50230268e+00  5.32364818e+00  2.14275534e+00 -5.48237735e+00
  3.03194307e+00  3.24940799e+00 -8.46357216e+00  4.56688114e+00  2.12837963e-01
 -8.80984958e+00
Integer atomic weights                     I   N=          32
          12          12          12           1           1          14
          12          12          12          12          12           1
           1           1          12           1           1           1
           1          12           1          12           1           1
           1           1           1          15          12          15
           1           1
Real atomic weights                        R   N=          32
  1.20000000e+01  1.20000000e+01  1.20000000e+01  1.00782503e+00  1.00782503e+00
  1.40030740e+01  1.20000000e+01  1.20000000e+01  1.20000000e+01  1.20000000e+01
  1.20000000e+01  1.00782503e+00  1.00782503e+00  1.00782503e+00  1.20000000e+01
  1.00782503e+00  1.00782503e+00  1.00782503e+00  1.00782503e+00  1.20000000e+01
  1.00782503e+00  1.20000000e+01  1.00782503e+00  1.00782503e+00  1.00782503e+00
  1.00782503e+00  1.00782503e+00  1.59949146e+01  1.20000000e+01  1.59949146e+01
  1.00782503e+00  1.00782503e+00
Number of primitive shells                 I              323
Number of contracted shells                I              154
Pure/Cartesian d shells                    I                1
Pure/Cartesian f shells                    I                1
Highest angular momentum                   I                2
Largest degree of contraction              I                6
Shell types                                I   N=         154
           0           0           1           0           1           2
           0           1           0           0           1           0
           1           2           0           1           0           0
           1           0           1           2           0           1
           0           0           0           0           0           0
           1           0           1           2           0           1
           0           0           1           0           1           2
           0           1           0           0           1           0
           1           2           0           1           0           0
           1           0           1           2           0           1
           0           0           1           0           1           2
           0           1           0           0           1           0
           1           2           0           1           0           0
           0           0           0           0           0           0
           1           0           1           2           0           1
           0           0           0           0           0           0
           0           0           0           0           1           0
           1           2           0           1           0           0
           0           0           1           0           1           2
           0           1           0           0           0           0
           0           0           0           0           0           0
           0           0           1           0           1           2
           0           1           0           0           1           0
           1           2           0           1           0           0
           1           0           1           2           0           1
           0           0           0           0
Number of primitives per shell             I   N=         154
           6           3           3           1           1           1
           1           1           6           3           3           1
           1           1           1           1           6           3
           3           1           1           1           1           1
           3           1           3           1           6           3
           3           1           1           1           1           1
           6           3           3           1           1           1
           1           1           6           3           3           1
           1           1           1           1           6           3
           3           1           1           1           1           1
           6           3           3           1           1           1
           1           1           6           3           3           1
           1           1           1           1           3           1
           3           1           3           1           6           3
           3           1           1           1           1           1
           3           1           3           1           3           1
           3           1           6           3           3           1
           1           1           1           1           3           1
           6           3           3           1           1           1
           1           1           3           1           3           1
           3           1           3           1           3           1
           6           3           3           1           1           1
           1           1           6           3           3           1
           1           1           1           1           6           3
           3           1           1           1           1           1
           3           1           3           1
Shell to atom map                          I   N=         154
           1           1           1           1           1           1
           1           1           2           2           2           2
           2           2           2           2           3           3
           3           3           3           3           3           3
           4           4           5           5           6           6
           6           6           6           6           6           6
           7           7           7           7           7           7
           7           7           8           8           8           8
           8           8           8           8           9           9
           9           9           9           9           9           9
          10          10          10          10          10          10
          10          10          11          11          11          11
          11          11          11          11          12          12
          13          13          14          14          15          15
          15          15          15          15          15          15
          16          16          17          17          18          18
          19          19          20          20          20          20
          20          20          20          20          21          21
          22          22          22          22          22          22
          22          22          23          23          24          24
          25          25          26          26          27          27
          28          28          28          28          28          28
          28          28          29          29          29          29
          29          29          29          29          30          30
          30          30          30          30          30          30
          31          31          32          32
Primitive exponents                        R   N=         323
  3.04752490e+03  4.57369510e+02  1.03948690e+02  2.92101550e+01  9.28666300e+00
  3.16392700e+00  7.86827240e+00  1.88128850e+00  5.44249300e-01  7.86827240e+00
  1.88128850e+00  5.44249300e-01  1.68714400e-01  1.68714400e-01  8.00000000e-01
  4.38000000e-02  4.38000000e-02  3.04752490e+03  4.57369510e+02  1.03948690e+02
  2.92101550e+01  9.28666300e+00  3.16392700e+00  7.86827240e+00  1.88128850e+00
  5.44249300e-01  7.86827240e+00  1.88128850e+00  5.44249300e-01  1.68714400e-01
  1.68714400e-01  8.00000000e-01  4.38000000e-02  4.38000000e-02  3.04752490e+03
  4.57369510e+02  1.03948690e+02  2.92101550e+01  9.28666300e+00  3.16392700e+00
  7.86827240e+00  1.88128850e+00  5.44249300e-01  7.86827240e+00  1.88128850e+00
  5.44249300e-01  1.68714400e-01  1.68714400e-01  8.00000000e-01  4.38000000e-02
  4.38000000e-02  1.87311370e+01  2.82539370e+00  6.40121700e-01  1.61277800e-01
  1.87311370e+01  2.82539370e+00  6.40121700e-01  1.61277800e-01  4.17351100e+03
  6.27457900e+02  1.42902100e+02  4.02343300e+01  1.28202100e+01  4.39043700e+00
  1.16263580e+01  2.71628000e+00  7.72218000e-01  1.16263580e+01  2.71628000e+00
  7.72218000e-01  2.12031300e-01  2.12031300e-01  8.00000000e-01  6.39000000e-02
  6.39000000e-02  3.04752490e+03  4.57369510e+02  1.03948690e+02  2.92101550e+01
  9.28666300e+00  3.16392700e+00  7.86827240e+00  1.88128850e+00  5.44249300e-01
  7.86827240e+00  1.88128850e+00  5.44249300e-01  1.68714400e-01  1.68714400e-01
  8.00000000e-01  4.38000000e-02  4.38000000e-02  3.04752490e+03  4.57369510e+02
  1.03948690e+02  2.92101550e+01  9.28666300e+00  3.16392700e+00  7.86827240e+00
  1.88128850e+00  5.44249300e-01  7.86827240e+00  1.88128850e+00  5.44249300e-01
  1.68714400e-01  1.68714400e-01  8.00000000e-01  4.38000000e-02  4.38000000e-02
  3.04752490e+03  4.57369510e+02  1.03948690e+02  2.92101550e+01  9.28666300e+00
  3.16392700e+00  7.86827240e+00  1.88128850e+00  5.44249300e-01  7.86827240e+00
  1.88128850e+00  5.44249300e-01  1.68714400e-01  1.68714400e-01  8.00000000e-01
  4.38000000e-02  4.38000000e-02  3.04752490e+03  4.57369510e+02  1.03948690e+02
  2.92101550e+01  9.28666300e+00  3.16392700e+00  7.86827240e+00  1.88128850e+00
  5.44249300e-01  7.86827240e+00  1.88128850e+00  5.44249300e-01  1.68714400e-01
  1.68714400e-01  8.00000000e-01  4.38000000e-02  4.38000000e-02  3.04752490e+03
  4.57369510e+02  1.03948690e+02  2.92101550e+01  9.28666300e+00  3.16392700e+00
  7.86827240e+00  1.88128850e+00  5.44249300e-01  7.86827240e+00  1.88128850e+00
  5.44249300e-01  1.68714400e-01  1.68714400e-01  8.00000000e-01  4.38000000e-02
  4.38000000e-02  1.87311370e+01  2.82539370e+00  6.40121700e-01  1.61277800e-01
  1.87311370e+01  2.82539370e+00  6.40121700e-01  1.61277800e-01  1.87311370e+01
  2.82539370e+00  6.40121700e-01  1.61277800e-01  3.04752490e+03  4.57369510e+02
  1.03948690e+02  2.92101550e+01  9.28666300e+00  3.16392700e+00  7.86827240e+00
  1.88128850e+00  5.44249300e-01  7.86827240e+00  1.88128850e+00  5.44249300e-01
  1.68714400e-01  1.68714400e-01  8.00000000e-01  4.38000000e-02  4.38000000e-02
  1.87311370e+01  2.82539370e+00  6.40121700e-01  1.61277800e-01  1.87311370e+01
  2.82539370e+00  6.40121700e-01  1.61277800e-01  1.87311370e+01  2.82539370e+00
  6.40121700e-01  1.61277800e-01  1.87311370e+01  2.82539370e+00  6.40121700e-01
  1.61277800e-01  3.04752490e+03  4.57369510e+02  1.03948690e+02  2.92101550e+01
  9.28666300e+00  3.16392700e+00  7.86827240e+00  1.88128850e+00  5.44249300e-01
  7.86827240e+00  1.88128850e+00  5.44249300e-01  1.68714400e-01  1.68714400e-01
  8.00000000e-01  4.38000000e-02  4.38000000e-02  1.87311370e+01  2.82539370e+00
  6.40121700e-01  1.61277800e-01  3.04752490e+03  4.57369510e+02  1.03948690e+02
  2.92101550e+01  9.28666300e+00  3.16392700e+00  7.86827240e+00  1.88128850e+00
  5.44249300e-01  7.86827240e+00  1.88128850e+00  5.44249300e-01  1.68714400e-01
  1.68714400e-01  8.00000000e-01  4.38000000e-02  4.38000000e-02  1.87311370e+01
  2.82539370e+00  6.40121700e-01  1.61277800e-01  1.87311370e+01  2.82539370e+00
  6.40121700e-01  1.61277800e-01  1.87311370e+01  2.82539370e+00  6.40121700e-01
  1.61277800e-01  1.87311370e+01  2.82539370e+00  6.40121700e-01  1.61277800e-01
  1.87311370e+01  2.82539370e+00  6.40121700e-01  1.61277800e-01  5.48467170e+03
  8.25234950e+02  1.88046960e+02  5.29645000e+01  1.68975700e+01  5.79963530e+00
  1.55396160e+01  3.59993360e+00  1.01376180e+00  1.55396160e+01  3.59993360e+00
  1.01376180e+00  2.70005800e-01  2.70005800e-01  8.00000000e-01  8.45000000e-02
  8.45000000e-02  3.04752490e+03  4.57369510e+02  1.03948690e+02  2.92101550e+01
  9.28666300e+00  3.16392700e+00  7.86827240e+00  1.88128850e+00  5.44249300e-01
  7.86827240e+00  1.88128850e+00  5.44249300e-01  1.68714400e-01  1.68714400e-01
  8.00000000e-01  4.38000000e-02  4.38000000e-02  5.48467170e+03  8.25234950e+02
  1.88046960e+02  5.29645000e+01  1.68975700e+01  5.79963530e+00  1.55396160e+01
  3.59993360e+00  1.01376180e+00  1.55396160e+01  3.59993360e+00  1.01376180e+00
  2.70005800e-01  2.70005800e-01  8.00000000e-01  8.45000000e-02  8.45000000e-02
  1.87311370e+01  2.82539370e+00  6.40121700e-01  1.61277800e-01  1.87311370e+01
  2.82539370e+00  6.40121700e-01  1.61277800e-01
Contraction coefficients                   R   N=         323
  1.83470016e-03  1.40373012e-02  6.88426061e-02  2.32184421e-01  4.67941342e-01
  3.62312032e-01 -1.19332409e-01 -1.60854212e-01  1.14345648e+00  6.89990956e-02
  3.16423980e-01  7.44308252e-01  1.00000000e+00  1.00000000e+00  1.00000000e+00
  1.00000000e+00  1.00000000e+00  1.83470016e-03  1.40373012e-02  6.88426061e-02
  2.32184421e-01  4.67941342e-01  3.62312032e-01 -1.19332409e-01 -1.60854212e-01
  1.14345648e+00  6.89990956e-02  3.16423980e-01  7.44308252e-01  1.00000000e+00
  1.00000000e+00  1.00000000e+00  1.00000000e+00  1.00000000e+00  1.83470016e-03
  1.40373012e-02  6.88426061e-02  2.32184421e-01  4.67941342e-01  3.62312032e-01
 -1.19332409e-01 -1.60854212e-01  1.14345648e+00  6.89990956e-02  3.16423980e-01
  7.44308252e-01  1.00000000e+00  1.00000000e+00  1.00000000e+00  1.00000000e+00
  1.00000000e+00  3.34945995e-02  2.34726947e-01  8.13757318e-01  1.00000000e+00
  3.34945995e-02  2.34726947e-01  8.13757318e-01  1.00000000e+00  1.83479944e-03
  1.39949958e-02  6.85869792e-02  2.32240930e-01  4.69069858e-01  3.60454891e-01
 -1.14961023e-01 -1.69118034e-01  1.14585223e+00  6.75800232e-02  3.23907111e-01
  7.40895255e-01  1.00000000e+00  1.00000000e+00  1.00000000e+00  1.00000000e+00
  1.00000000e+00  1.83470016e-03  1.40373012e-02  6.88426061e-02  2.32184421e-01
  4.67941342e-01  3.62312032e-01 -1.19332409e-01 -1.60854212e-01  1.14345648e+00
  6.89990956e-02  3.16423980e-01  7.44308252e-01  1.00000000e+00  1.00000000e+00
  1.00000000e+00  1.00000000e+00  1.00000000e+00  1.83470016e-03  1.40373012e-02
  6.88426061e-02  2.32184421e-01  4.67941342e-01  3.62312032e-01 -1.19332409e-01
 -1.60854212e-01  1.14345648e+00  6.89990956e-02  3.16423980e-01  7.44308252e-01
  1.00000000e+00  1.00000000e+00  1.00000000e+00  1.00000000e+00  1.00000000e+00
  1.83470016e-03  1.40373012e-02  6.88426061e-02  2.32184421e-01  4.67941342e-01
  3.62312032e-01 -1.19332409e-01 -1.60854212e-01  1.14345648e+00  6.89990956e-02
  3.16423980e-01  7.44308252e-01  1.00000000e+00  1.00000000e+00  1.00000000e+00
  1.00000000e+00  1.00000000e+00  1.83470016e-03  1.40373012e-02  6.88426061e-02
  2.32184421e-01  4.67941342e-01  3.62312032e-01 -1.19332409e-01 -1.60854212e-01
  1.14345648e+00  6.89990956e-02  3.16423980e-01  7.44308252e-01  1.00000000e+00
  1.00000000e+00  1.00000000e+00  1.00000000e+00  1.00000000e+00  1.83470016e-03
  1.40373012e-02  6.88426061e-02  2.32184421e-01  4.67941342e-01  3.62312032e-01
 -1.19332409e-01 -1.60854212e-01  1.14345648e+00  6.89990956e-02  3.16423980e-01
  7.44308252e-01  1.00000000e+00  1.00000000e+00  1.00000000e+00  1.00000000e+00
  1.00000000e+00  3.34945995e-02  2.34726947e-01  8.13757318e-01  1.00000000e+00
  3.34945995e-02  2.34726947e-01  8.13757318e-01  1.00000000e+00  3.34945995e-02
  2.34726947e-01  8.13757318e-01  1.00000000e+00  1.83470016e-03  1.40373012e-02
  6.88426061e-02  2.32184421e-01  4.67941342e-01  3.62312032e-01 -1.19332409e-01
 -1.60854212e-01  1.14345648e+00  6.89990956e-02  3.16423980e-01  7.44308252e-01
  1.00000000e+00  1.00000000e+00  1.00000000e+00  1.00000000e+00  1.00000000e+00
  3.34945995e-02  2.34726947e-01  8.13757318e-01  1.00000000e+00  3.34945995e-02
  2.34726947e-01  8.13757318e-01  1.00000000e+00  3.34945995e-02  2.34726947e-01
  8.13757318e-01  1.00000000e+00  3.34945995e-02  2.34726947e-01  8.13757318e-01
  1.00000000e+00  1.83470016e-03  1.40373012e-02  6.88426061e-02  2.32184421e-01
  4.67941342e-01  3.62312032e-01 -1.19332409e-01 -1.60854212e-01  1.14345648e+00
  6.89990956e-02  3.16423980e-01  7.44308252e-01  1.00000000e+00  1.00000000e+00
  1.00000000e+00  1.00000000e+00  1.00000000e+00  3.34945995e-02  2.34726947e-01
  8.13757318e-01  1.00000000e+00  1.83470016e-03  1.40373012e-02  6.88426061e-02
  2.32184421e-01  4.67941342e-01  3.62312032e-01 -1.19332409e-01 -1.60854212e-01
  1.14345648e+00  6.89990956e-02  3.16423980e-01  7.44308252e-01  1.00000000e+00
  1.00000000e+00  1.00000000e+00  1.00000000e+00  1.00000000e+00  3.34945995e-02
  2.34726947e-01  8.13757318e-01  1.00000000e+00  3.34945995e-02  2.34726947e-01
  8.13757318e-01  1.00000000e+00  3.34945995e-02  2.34726947e-01  8.13757318e-01
  1.00000000e+00  3.34945995e-02  2.34726947e-01  8.13757318e-01  1.00000000e+00
  3.34945995e-02  2.34726947e-01  8.13757318e-01  1.00000000e+00  1.83109981e-03
  1.39500985e-02  6.84450927e-02  2.32714275e-01  4.70192950e-01  3.58520862e-01
 -1.10777504e-01 -1.48026305e-01  1.13076704e+00  7.08742995e-02  3.39752798e-01
  7.27158595e-01  1.00000000e+00  1.00000000e+00  1.00000000e+00  1.00000000e+00
  1.00000000e+00  1.83470016e-03  1.40373012e-02  6.88426061e-02  2.32184421e-01
  4.67941342e-01  3.62312032e-01 -1.19332409e-01 -1.60854212e-01  1.14345648e+00
  6.89990956e-02  3.16423980e-01  7.44308252e-01  1.00000000e+00  1.00000000e+00
  1.00000000e+00  1.00000000e+00  1.00000000e+00  1.83109981e-03  1.39500985e-02
  6.84450927e-02  2.32714275e-01  4.70192950e-01  3.58520862e-01 -1.10777504e-01
 -1.48026305e-01  1.13076704e+00  7.08742995e-02  3.39752798e-01  7.27158595e-01
  1.00000000e+00  1.00000000e+00  1.00000000e+00  1.00000000e+00  1.00000000e+00
  3.34945995e-02  2.34726947e-01  8.13757318e-01  1.00000000e+00  3.34945995e-02
  2.34726947e-01  8.13757318e-01  1.00000000e+00
Coordinates of each shell                  R   N=         462
  1.21978472e+00 -7.93381586e-01  5.07105285e-01  1.21978472e+00 -7.93381586e-01
  5.07105285e-01  1.21978472e+00 -7.93381586e-01  5.07105285e-01  1.21978472e+00
 -7.93381586e-01  5.07105285e-01  1.21978472e+00 -7.93381586e-01  5.07105285e-01
  1.21978472e+00 -7.93381586e-01  5.07105285e-01  1.21978472e+00 -7.93381586e-01
  5.07105285e-01  1.21978472e+00 -7.93381586e-01  5.07105285e-01 -4.12506186e-01
 -1.89950187e+00  2.58345620e+00 -4.12506186e-01 -1.89950187e+00  2.58345620e+00
 -4.12506186e-01 -1.89950187e+00  2.58345620e+00 -4.12506186e-01 -1.89950187e+00
  2.58345620e+00 -4.12506186e-01 -1.89950187e+00  2.58345620e+00 -4.12506186e-01
 -1.89950187e+00  2.58345620e+00 -4.12506186e-01 -1.89950187e+00  2.58345620e+00
 -4.12506186e-01 -1.89950187e+00  2.58345620e+00 -2.80294649e+00 -3.42603136e-01
  3.23336849e+00 -2.80294649e+00 -3.42603136e-01  3.23336849e+00 -2.80294649e+00
 -3.42603136e-01  3.23336849e+00 -2.80294649e+00 -3.42603136e-01  3.23336849e+00
 -2.80294649e+00 -3.42603136e-01  3.23336849e+00 -2.80294649e+00 -3.42603136e-01
  3.23336849e+00 -2.80294649e+00 -3.42603136e-01  3.23336849e+00 -2.80294649e+00
 -3.42603136e-01  3.23336849e+00  7.25315498e-01 -2.11672215e+00  4.30811097e+00
  7.25315498e-01 -2.11672215e+00  4.30811097e+00 -1.05102119e+00 -3.79852181e+00
  2.05225247e+00 -1.05102119e+00 -3.79852181e+00  2.05225247e+00 -4.38060514e+00
 -1.86804158e+00  4.93792659e+00 -4.38060514e+00 -1.86804158e+00  4.93792659e+00
 -4.38060514e+00 -1.86804158e+00  4.93792659e+00 -4.38060514e+00 -1.86804158e+00
  4.93792659e+00 -4.38060514e+00 -1.86804158e+00  4.93792659e+00 -4.38060514e+00
 -1.86804158e+00  4.93792659e+00 -4.38060514e+00 -1.86804158e+00  4.93792659e+00
 -4.38060514e+00 -1.86804158e+00  4.93792659e+00  3.55915898e+00  3.20290825e-01
  1.04369291e+00  3.55915898e+00  3.20290825e-01  1.04369291e+00  3.55915898e+00
  3.20290825e-01  1.04369291e+00  3.55915898e+00  3.20290825e-01  1.04369291e+00
  3.55915898e+00  3.20290825e-01  1.04369291e+00  3.55915898e+00  3.20290825e-01
  1.04369291e+00  3.55915898e+00  3.20290825e-01  1.04369291e+00  3.55915898e+00
  3.20290825e-01  1.04369291e+00  5.10458805e+00  1.37666925e+00 -8.52129251e-01
  5.10458805e+00  1.37666925e+00 -8.52129251e-01  5.10458805e+00  1.37666925e+00
 -8.52129251e-01  5.10458805e+00  1.37666925e+00 -8.52129251e-01  5.10458805e+00
  1.37666925e+00 -8.52129251e-01  5.10458805e+00  1.37666925e+00 -8.52129251e-01
  5.10458805e+00  1.37666925e+00 -8.52129251e-01  5.10458805e+00  1.37666925e+00
 -8.52129251e-01  4.20628196e+00  1.26928172e+00 -3.29776984e+00  4.20628196e+00
  1.26928172e+00 -3.29776984e+00  4.20628196e+00  1.26928172e+00 -3.29776984e+00
  4.20628196e+00  1.26928172e+00 -3.29776984e+00  4.20628196e+00  1.26928172e+00
 -3.29776984e+00  4.20628196e+00  1.26928172e+00 -3.29776984e+00  4.20628196e+00
  1.26928172e+00 -3.29776984e+00  4.20628196e+00  1.26928172e+00 -3.29776984e+00
  1.88711125e+00  1.63457013e-01 -3.86385190e+00  1.88711125e+00  1.63457013e-01
 -3.86385190e+00  1.88711125e+00  1.63457013e-01 -3.86385190e+00  1.88711125e+00
  1.63457013e-01 -3.86385190e+00  1.88711125e+00  1.63457013e-01 -3.86385190e+00
  1.88711125e+00  1.63457013e-01 -3.86385190e+00  1.88711125e+00  1.63457013e-01
 -3.86385190e+00  1.88711125e+00  1.63457013e-01 -3.86385190e+00  3.61203485e-01
 -8.81518719e-01 -2.02489064e+00  3.61203485e-01 -8.81518719e-01 -2.02489064e+00
  3.61203485e-01 -8.81518719e-01 -2.02489064e+00  3.61203485e-01 -8.81518719e-01
 -2.02489064e+00  3.61203485e-01 -8.81518719e-01 -2.02489064e+00  3.61203485e-01
 -8.81518719e-01 -2.02489064e+00  3.61203485e-01 -8.81518719e-01 -2.02489064e+00
  3.61203485e-01 -8.81518719e-01 -2.02489064e+00  4.21764339e+00  3.71230610e-01
  2.98886228e+00  4.21764339e+00  3.71230610e-01  2.98886228e+00 -1.43128268e+00
 -1.75425900e+00 -2.51423709e+00 -1.43128268e+00 -1.75425900e+00 -2.51423709e+00
  6.91748095e+00  2.22917514e+00 -4.12639455e-01  6.91748095e+00  2.22917514e+00
 -4.12639455e-01 -2.13671371e+00  2.29992885e+00  4.24944740e+00 -2.13671371e+00
  2.29992885e+00  4.24944740e+00 -2.13671371e+00  2.29992885e+00  4.24944740e+00
 -2.13671371e+00  2.29992885e+00  4.24944740e+00 -2.13671371e+00  2.29992885e+00
  4.24944740e+00 -2.13671371e+00  2.29992885e+00  4.24944740e+00 -2.13671371e+00
  2.29992885e+00  4.24944740e+00 -2.13671371e+00  2.29992885e+00  4.24944740e+00
 -3.90490428e+00 -1.12186309e-01  1.48713715e+00 -3.90490428e+00 -1.12186309e-01
  1.48713715e+00 -1.04501686e+00  2.14958424e+00  6.00990177e+00 -1.04501686e+00
  2.14958424e+00  6.00990177e+00 -3.83817702e+00  3.40930112e+00  4.64782656e+00
 -3.83817702e+00  3.40930112e+00  4.64782656e+00 -9.95621289e-01  3.36267791e+00
  2.88779950e+00 -9.95621289e-01  3.36267791e+00  2.88779950e+00 -6.94131397e+00
 -9.29037645e-01  5.40157859e+00 -6.94131397e+00 -9.29037645e-01  5.40157859e+00
 -6.94131397e+00 -9.29037645e-01  5.40157859e+00 -6.94131397e+00 -9.29037645e-01
  5.40157859e+00 -6.94131397e+00 -9.29037645e-01  5.40157859e+00 -6.94131397e+00
 -9.29037645e-01  5.40157859e+00 -6.94131397e+00 -9.29037645e-01  5.40157859e+00
 -6.94131397e+00 -9.29037645e-01  5.40157859e+00 -3.46509295e+00 -2.10979374e+00
  6.61900475e+00 -3.46509295e+00 -2.10979374e+00  6.61900475e+00 -8.43850452e+00
 -2.79265495e+00  7.02381139e+00 -8.43850452e+00 -2.79265495e+00  7.02381139e+00
 -8.43850452e+00 -2.79265495e+00  7.02381139e+00 -8.43850452e+00 -2.79265495e+00
  7.02381139e+00 -8.43850452e+00 -2.79265495e+00  7.02381139e+00 -8.43850452e+00
 -2.79265495e+00  7.02381139e+00 -8.43850452e+00 -2.79265495e+00  7.02381139e+00
 -8.43850452e+00 -2.79265495e+00  7.02381139e+00 -7.86617474e+00 -7.16966080e-01
  3.55552084e+00 -7.86617474e+00 -7.16966080e-01  3.55552084e+00 -6.98297238e+00
  9.53099182e-01  6.30851196e+00 -6.98297238e+00  9.53099182e-01  6.30851196e+00
 -8.52363560e+00 -4.65025774e+00  6.11337251e+00 -8.52363560e+00 -4.65025774e+00
  6.11337251e+00 -1.03720799e+01 -2.11079681e+00  7.32843217e+00 -1.03720799e+01
 -2.11079681e+00  7.32843217e+00 -7.55917958e+00 -3.03371745e+00  8.88841734e+00
 -7.55917958e+00 -3.03371745e+00  8.88841734e+00  1.45463757e+00  2.94777449e-01
 -6.42738494e+00  1.45463757e+00  2.94777449e-01 -6.42738494e+00  1.45463757e+00
  2.94777449e-01 -6.42738494e+00  1.45463757e+00  2.94777449e-01 -6.42738494e+00
  1.45463757e+00  2.94777449e-01 -6.42738494e+00  1.45463757e+00  2.94777449e-01
 -6.42738494e+00  1.45463757e+00  2.94777449e-01 -6.42738494e+00  1.45463757e+00
  2.94777449e-01 -6.42738494e+00  3.62667003e+00  1.51499097e+00 -7.50230268e+00
  3.62667003e+00  1.51499097e+00 -7.50230268e+00  3.62667003e+00  1.51499097e+00
 -7.50230268e+00  3.62667003e+00  1.51499097e+00 -7.50230268e+00  3.62667003e+00
  1.51499097e+00 -7.50230268e+00  3.62667003e+00  1.51499097e+00 -7.50230268e+00
  3.62667003e+00  1.51499097e+00 -7.50230268e+00  3.62667003e+00  1.51499097e+00
 -7.50230268e+00  5.32364818e+00  2.14275534e+00 -5.48237735e+00  5.32364818e+00
  2.14275534e+00 -5.48237735e+00  5.32364818e+00  2.14275534e+00 -5.48237735e+00
  5.32364818e+00  2.14275534e+00 -5.48237735e+00  5.32364818e+00  2.14275534e+00
 -5.48237735e+00  5.32364818e+00  2.14275534e+00 -5.48237735e+00  5.32364818e+00
  2.14275534e+00 -5.48237735e+00  5.32364818e+00  2.14275534e+00 -5.48237735e+00
  3.03194307e+00  3.24940799e+00 -8.46357216e+00  3.03194307e+00  3.24940799e+00
 -8.46357216e+00  4.56688114e+00  2.12837963e-01 -8.80984958e+00  4.56688114e+00
  2.12837963e-01 -8.80984958e+00
Total Energy                               R     -6.727118451811764e+02
Alpha Orbital Energies                     R   N=         319
 -1.92031678e+01 -1.92026270e+01 -1.43216165e+01 -1.03125449e+01 -1.02557433e+01
 -1.02540556e+01 -1.02184647e+01 -1.02104610e+01 -1.02025727e+01 -1.02017332e+01
 -1.01989280e+01 -1.01943557e+01 -1.01876912e+01 -1.01783464e+01 -1.01750553e+01
 -1.13216151e+00 -1.04205100e+00 -9.07206424e-01 -8.66687048e-01 -7.95932009e-01
 -7.62125089e-01 -7.56948576e-01 -7.18273539e-01 -6.99587251e-01 -6.68053387e-01
 -6.28724562e-01 -6.22041929e-01 -6.04474261e-01 -5.83751558e-01 -5.25372315e-01
 -5.24628565e-01 -5.23842152e-01 -4.95653246e-01 -4.76360408e-01 -4.65559394e-01
 -4.54149342e-01 -4.47511522e-01 -4.45323730e-01 -4.20665910e-01 -4.13207362e-01
 -4.05336521e-01 -3.99929299e-01 -3.90903351e-01 -3.82427751e-01 -3.79714448e-01
 -3.74252636e-01 -3.66092915e-01 -3.62854195e-01 -3.53393261e-01 -3.48370273e-01
 -3.42496407e-01 -3.32373033e-01 -3.09185883e-01 -2.50048991e-01 -2.23707845e-01
 -2.10890291e-01 -1.47755525e-02  4.92801364e-04  4.22888515e-03  1.06793024e-02
  1.65381917e-02  1.99103730e-02  2.49680082e-02  2.89351463e-02  3.49990840e-02
  3.86782817e-02  3.98478393e-02  4.82598388e-02  5.12895810e-02  5.75112071e-02
  5.92762534e-02  6.57817589e-02  7.48822877e-02  7.86846149e-02  8.16505219e-02