Generated by Psi4
     FORCE                           RHF                       TESTBAS
Number of atoms                            I               32
Charge                                     I                0
Multiplicity                               I                1
Number of electrons                        I               88
Number of alpha electrons                  I               44
Number of beta electrons                   I               44
Number of basis functions                  I              251
Number of independent functions            I              251
Atomic numbers                             I   N=          32
           6           6           6           1           1           7
           6           6           6           6           6           6
           1           1           1           1           6           1
           1           1           1           1           1           1
           1           1           1           1           1           1
           1           1
Nuclear charges                            R   N=          32
  6.00000000e+00  6.00000000e+00  6.00000000e+00  1.00000000e+00  1.00000000e+00
  7.00000000e+00  6.00000000e+00  6.00000000e+00  6.00000000e+00  6.00000000e+00
  6.00000000e+00  6.00000000e+00  1.00000000e+00  1.00000000e+00  1.00000000e+00
  1.00000000e+00  6.00000000e+00  1.00000000e+00  1.00000000e+00  1.00000000e+00
  1.00000000e+00  1.00000000e+00  1.00000000e+00  1.00000000e+00  1.00000000e+00
  1.00000000e+00  1.00000000e+00  1.00000000e+00  1.00000000e+00  1.00000000e+00
  1.00000000e+00  1.00000000e+00
Current cartesian coordinates              R   N=          96
  7.42568555e-01 -1.39613618e-01 -1.01912786e+00 -9.58698401e-01 -1.44995175e+00
  9.71738271e-01 -3.01838604e+00  2.14944663e-01  2.18414742e+00  2.29556693e-01
 -2.25491059e+00  2.48079336e+00 -1.94389449e+00 -3.05518054e+00  1.05668945e-01
 -4.65582412e+00 -1.42373528e+00  3.72224258e+00  3.33569400e+00  6.66739769e-01
  4.63416251e-02  5.00642986e+00  1.94976029e+00 -1.95422962e+00  5.36184543e+00
  2.59351250e-01 -4.28796877e+00  2.80411179e+00 -5.78531178e-01 -5.37799570e+00
  1.13587196e+00 -1.83510105e+00 -3.35975435e+00 -1.93898295e+00  2.49961949e+00
  3.63056331e+00 -4.22431406e+00  9.35588211e-01  6.49299184e-01 -6.60890918e-01
  1.87395784e+00  5.14241088e+00 -3.44687326e+00  3.62481741e+00  4.49542613e+00
 -8.74129683e-01  3.76226085e+00  2.38092585e+00 -7.01052706e+00 -2.96497998e-01
  4.61211095e+00 -3.65415009e+00 -2.12679902e+00  5.21001906e+00 -8.14761060e+00
  2.73393985e-01  2.97525431e+00 -6.79333785e+00  1.37161193e+00  5.84879126e+00
 -8.08896531e+00 -1.72432112e+00  5.65371213e+00 -2.30467209e-01  1.58310470e+00
 -1.67750268e+00  4.30900291e+00 -1.03022781e+00  7.59284831e-01  3.09020626e+00
  1.92306044e+00  1.67756569e+00  3.09119690e+00 -1.87588787e+00 -6.97256200e+00
  1.81192174e+00  1.08291527e+00 -6.14280281e+00 -7.07756426e-01 -2.33635276e+00
 -4.17307726e+00  2.01323977e+00 -3.62318105e+00 -2.75271030e+00  6.84885800e+00
  2.43933303e+00 -1.13306516e+00  4.12614904e+00  3.74348734e+00 -2.53513756e+00
  6.46007575e+00 -1.42372252e+00 -3.74956791e+00  6.47141671e+00  1.25054874e+00
 -5.73508970e+00
Integer atomic weights                     I   N=          32
          12          12          12           1           1          14
          12          12          12          12          12          12
           1           1           1           1          12           1
           1           1           1           1           1           1
           1           1           1           1           1           1
           1           1
Real atomic weights                        R   N=          32
  1.20000000e+01  1.20000000e+01  1.20000000e+01  1.00782503e+00  1.00782503e+00
  1.40030740e+01  1.20000000e+01  1.20000000e+01  1.20000000e+01  1.20000000e+01
  1.20000000e+01  1.20000000e+01  1.00782503e+00  1.00782503e+00  1.00782503e+00
  1.00782503e+00  1.20000000e+01  1.00782503e+00  1.00782503e+00  1.00782503e+00
  1.00782503e+00  1.00782503e+00  1.00782503e+00  1.00782503e+00  1.00782503e+00
  1.00782503e+00  1.00782503e+00  1.00782503e+00  1.00782503e+00  1.00782503e+00
  1.00782503e+00  1.00782503e+00
Number of primitive shells                 I              271
Number of contracted shells                I              130
Pure/Cartesian d shells                    I                1
Pure/Cartesian f shells                    I                1
Highest angular momentum                   I                2
Largest degree of contraction              I                6
Shell types                                I   N=         130
           0           0           1           0           1           2
           0           1           0           0           1           0
           1           2           0           1           0           0
           1           0           1           2           0           1
           0           0           0           0           0           0
           1           0           1           2           0           1
           0           0           1           0           1           2
           0           1           0           0           1           0
           1           2           0           1           0           0
           1           0           1           2           0           1
           0           0           1           0           1           2
           0           1           0           0           1           0
           1           2           0           1           0           0
           1           0           1           2           0           1
           0           0           0           0           0           0
           0           0           0           0           1           0
           1           2           0           1           0           0
           0           0           0           0           0           0
           0           0           0           0           0           0
           0           0           0           0           0           0
           0           0           0           0           0           0
           0           0           0           0
Number of primitives per shell             I   N=         130
           6           3           3           1           1           1
           1           1           6           3           3           1
           1           1           1           1           6           3
           3           1           1           1           1           1
           3           1           3           1           6           3
           3           1           1           1           1           1
           6           3           3           1           1           1
           1           1           6           3           3           1
           1           1           1           1           6           3
           3           1           1           1           1           1
           6           3           3           1           1           1
           1           1           6           3           3           1
           1           1           1           1           6           3
           3           1           1           1           1           1
           3           1           3           1           3           1
           3           1           6           3           3           1
           1           1           1           1           3           1
           3           1           3           1           3           1
           3           1           3           1           3           1
           3           1           3           1           3           1
           3           1           3           1           3           1
           3           1           3           1
Shell to atom map                          I   N=         130
           1           1           1           1           1           1
           1           1           2           2           2           2
           2           2           2           2           3           3
           3           3           3           3           3           3
           4           4           5           5           6           6
           6           6           6           6           6           6
           7           7           7           7           7           7
           7           7           8           8           8           8
           8           8           8           8           9           9
           9           9           9           9           9           9
          10          10          10          10          10          10
          10          10          11          11          11          11
          11          11          11          11          12          12
          12          12          12          12          12          12
          13          13          14          14          15          15
          16          16          17          17          17          17
          17          17          17          17          18          18
          19          19          20          20          21          21
          22          22          23          23          24          24
          25          25          26          26          27          27
          28          28          29          29          30          30
          31          31          32          32
Primitive exponents                        R   N=         271
  3.04752490e+03  4.57369510e+02  1.03948690e+02  2.92101550e+01  9.28666300e+00
  3.16392700e+00  7.86827240e+00  1.88128850e+00  5.44249300e-01  7.86827240e+00
  1.88128850e+00  5.44249300e-01  1.68714400e-01  1.68714400e-01  8.00000000e-01
  4.38000000e-02  4.38000000e-02  3.04752490e+03  4.57369510e+02  1.03948690e+02
  2.92101550e+01  9.28666300e+00  3.16392700e+00  7.86827240e+00  1.88128850e+00
  5.44249300e-01  7.86827240e+00  1.88128850e+00  5.44249300e-01  1.68714400e-01
  1.68714400e-01  8.00000000e-01  4.38000000e-02  4.38000000e-02  3.04752490e+03
  4.57369510e+02  1.03948690e+02  2.92101550e+01  9.28666300e+00  3.16392700e+00
  7.86827240e+00  1.88128850e+00  5.44249300e-01  7.86827240e+00  1.88128850e+00
  5.44249300e-01  1.68714400e-01  1.68714400e-01  8.00000000e-01  4.38000000e-02
  4.38000000e-02  1.87311370e+01  2.82539370e+00  6.40121700e-01  1.61277800e-01
  1.87311370e+01  2.82539370e+00  6.40121700e-01  1.61277800e-01  4.17351100e+03
  6.27457900e+02  1.42902100e+02  4.02343300e+01  1.28202100e+01  4.39043700e+00
  1.16263580e+01  2.71628000e+00  7.72218000e-01  1.16263580e+01  2.71628000e+00
  7.72218000e-01  2.12031300e-01  2.12031300e-01  8.00000000e-01  6.39000000e-02
  6.39000000e-02  3.04752490e+03  4.57369510e+02  1.03948690e+02  2.92101550e+01
  9.28666300e+00  3.16392700e+00  7.86827240e+00  1.88128850e+00  5.44249300e-01
  7.86827240e+00  1.88128850e+00  5.44249300e-01  1.68714400e-01  1.68714400e-01
  8.00000000e-01  4.38000000e-02  4.38000000e-02  3.04752490e+03  4.57369510e+02
  1.03948690e+02  2.92101550e+01  9.28666300e+00  3.16392700e+00  7.86827240e+00
  1.88128850e+00  5.44249300e-01  7.86827240e+00  1.88128850e+00  5.44249300e-01
  1.68714400e-01  1.68714400e-01  8.00000000e-01  4.38000000e-02  4.38000000e-02
  3.04752490e+03  4.57369510e+02  1.03948690e+02  2.92101550e+01  9.28666300e+00
  3.16392700e+00  7.86827240e+00  1.88128850e+00  5.44249300e-01  7.86827240e+00
  1.88128850e+00  5.44249300e-01  1.68714400e-01  1.68714400e-01  8.00000000e-01
  4.38000000e-02  4.38000000e-02  3.04752490e+03  4.57369510e+02  1.03948690e+02
  2.92101550e+01  9.28666300e+00  3.16392700e+00  7.86827240e+00  1.88128850e+00
  5.44249300e-01  7.86827240e+00  1.88128850e+00  5.44249300e-01  1.68714400e-01
  1.68714400e-01  8.00000000e-01  4.38000000e-02  4.38000000e-02  3.04752490e+03
  4.57369510e+02  1.03948690e+02  2.92101550e+01  9.28666300e+00  3.16392700e+00
  7.86827240e+00  1.88128850e+00  5.44249300e-01  7.86827240e+00  1.88128850e+00
  5.44249300e-01  1.68714400e-01  1.68714400e-01  8.00000000e-01  4.38000000e-02
  4.38000000e-02  3.04752490e+03  4.57369510e+02  1.03948690e+02  2.92101550e+01
  9.28666300e+00  3.16392700e+00  7.86827240e+00  1.88128850e+00  5.44249300e-01
  7.86827240e+00  1.88128850e+00  5.44249300e-01  1.68714400e-01  1.68714400e-01
  8.00000000e-01  4.38000000e-02  4.38000000e-02  1.87311370e+01  2.82539370e+00
  6.40121700e-01  1.61277800e-01  1.87311370e+01  2.82539370e+00  6.40121700e-01
  1.61277800e-01  1.87311370e+01  2.82539370e+00  6.40121700e-01  1.61277800e-01
  1.87311370e+01  2.82539370e+00  6.40121700e-01  1.61277800e-01  3.04752490e+03
  4.57369510e+02  1.03948690e+02  2.92101550e+01  9.28666300e+00  3.16392700e+00
  7.86827240e+00  1.88128850e+00  5.44249300e-01  7.86827240e+00  1.88128850e+00
  5.44249300e-01  1.68714400e-01  1.68714400e-01  8.00000000e-01  4.38000000e-02
  4.38000000e-02  1.87311370e+01  2.82539370e+00  6.40121700e-01  1.61277800e-01
  1.87311370e+01  2.82539370e+00  6.40121700e-01  1.61277800e-01  1.87311370e+01
  2.82539370e+00  6.40121700e-01  1.61277800e-01  1.87311370e+01  2.82539370e+00
  6.40121700e-01  1.61277800e-01  1.87311370e+01  2.82539370e+00  6.40121700e-01
  1.61277800e-01  1.87311370e+01  2.82539370e+00  6.40121700e-01  1.61277800e-01
  1.87311370e+01  2.82539370e+00  6.40121700e-01  1.61277800e-01  1.87311370e+01
  2.82539370e+00  6.40121700e-01  1.61277800e-01  1.87311370e+01  2.82539370e+00
  6.40121700e-01  1.61277800e-01  1.87311370e+01  2.82539370e+00  6.40121700e-01
  1.61277800e-01  1.87311370e+01  2.82539370e+00  6.40121700e-01  1.61277800e-01
  1.87311370e+01  2.82539370e+00  6.40121700e-01  1.61277800e-01  1.87311370e+01
  2.82539370e+00  6.40121700e-01  1.61277800e-01  1.87311370e+01  2.82539370e+00
  6.40121700e-01  1.61277800e-01  1.87311370e+01  2.82539370e+00  6.40121700e-01
  1.61277800e-01
Contraction coefficients                   R   N=         271
  1.83470016e-03  1.40373012e-02  6.88426061e-02  2.32184421e-01  4.67941342e-01
  3.62312032e-01 -1.19332409e-01 -1.60854212e-01  1.14345648e+00  6.89990956e-02
  3.16423980e-01  7.44308252e-01  1.00000000e+00  1.00000000e+00  1.00000000e+00
  1.00000000e+00  1.00000000e+00  1.83470016e-03  1.40373012e-02  6.88426061e-02
  2.32184421e-01  4.67941342e-01  3.62312032e-01 -1.19332409e-01 -1.60854212e-01
  1.14345648e+00  6.89990956e-02  3.16423980e-01  7.44308252e-01  1.00000000e+00
  1.00000000e+00  1.00000000e+00  1.00000000e+00  1.00000000e+00  1.83470016e-03
  1.40373012e-02  6.88426061e-02  2.32184421e-01  4.67941342e-01  3.62312032e-01
 -1.19332409e-01 -1.60854212e-01  1.14345648e+00  6.89990956e-02  3.16423980e-01
  7.44308252e-01  1.00000000e+00  1.00000000e+00  1.00000000e+00  1.00000000e+00
  1.00000000e+00  3.34945995e-02  2.34726947e-01  8.13757318e-01  1.00000000e+00
  3.34945995e-02  2.34726947e-01  8.13757318e-01  1.00000000e+00  1.83479944e-03
  1.39949958e-02  6.85869792e-02  2.32240930e-01  4.69069858e-01  3.60454891e-01
 -1.14961023e-01 -1.69118034e-01  1.14585223e+00  6.75800232e-02  3.23907111e-01
  7.40895255e-01  1.00000000e+00  1.00000000e+00  1.00000000e+00  1.00000000e+00
  1.00000000e+00  1.83470016e-03  1.40373012e-02  6.88426061e-02  2.32184421e-01
  4.67941342e-01  3.62312032e-01 -1.19332409e-01 -1.60854212e-01  1.14345648e+00
  6.89990956e-02  3.16423980e-01  7.44308252e-01  1.00000000e+00  1.00000000e+00
  1.00000000e+00  1.00000000e+00  1.00000000e+00  1.83470016e-03  1.40373012e-02
  6.88426061e-02  2.32184421e-01  4.67941342e-01  3.62312032e-01 -1.19332409e-01
 -1.60854212e-01  1.14345648e+00  6.89990956e-02  3.16423980e-01  7.44308252e-01
  1.00000000e+00  1.00000000e+00  1.00000000e+00  1.00000000e+00  1.00000000e+00
  1.83470016e-03  1.40373012e-02  6.88426061e-02  2.32184421e-01  4.67941342e-01
  3.62312032e-01 -1.19332409e-01 -1.60854212e-01  1.14345648e+00  6.89990956e-02
  3.16423980e-01  7.44308252e-01  1.00000000e+00  1.00000000e+00  1.00000000e+00
  1.00000000e+00  1.00000000e+00  1.83470016e-03  1.40373012e-02  6.88426061e-02
  2.32184421e-01  4.67941342e-01  3.62312032e-01 -1.19332409e-01 -1.60854212e-01
  1.14345648e+00  6.89990956e-02  3.16423980e-01  7.44308252e-01  1.00000000e+00
  1.00000000e+00  1.00000000e+00  1.00000000e+00  1.00000000e+00  1.83470016e-03
  1.40373012e-02  6.88426061e-02  2.32184421e-01  4.67941342e-01  3.62312032e-01
 -1.19332409e-01 -1.60854212e-01  1.14345648e+00  6.89990956e-02  3.16423980e-01
  7.44308252e-01  1.00000000e+00  1.00000000e+00  1.00000000e+00  1.00000000e+00
  1.00000000e+00  1.83470016e-03  1.40373012e-02  6.88426061e-02  2.32184421e-01
  4.67941342e-01  3.62312032e-01 -1.19332409e-01 -1.60854212e-01  1.14345648e+00
  6.89990956e-02  3.16423980e-01  7.44308252e-01  1.00000000e+00  1.00000000e+00
  1.00000000e+00  1.00000000e+00  1.00000000e+00  3.34945995e-02  2.34726947e-01
  8.13757318e-01  1.00000000e+00  3.34945995e-02  2.34726947e-01  8.13757318e-01
  1.00000000e+00  3.34945995e-02  2.34726947e-01  8.13757318e-01  1.00000000e+00
  3.34945995e-02  2.34726947e-01  8.13757318e-01  1.00000000e+00  1.83470016e-03
  1.40373012e-02  6.88426061e-02  2.32184421e-01  4.67941342e-01  3.62312032e-01
 -1.19332409e-01 -1.60854212e-01  1.14345648e+00  6.89990956e-02  3.16423980e-01
  7.44308252e-01  1.00000000e+00  1.00000000e+00  1.00000000e+00  1.00000000e+00
  1.00000000e+00  3.34945995e-02  2.34726947e-01  8.13757318e-01  1.00000000e+00
  3.34945995e-02  2.34726947e-01  8.13757318e-01  1.00000000e+00  3.34945995e-02
  2.34726947e-01  8.13757318e-01  1.00000000e+00  3.34945995e-02  2.34726947e-01
  8.13757318e-01  1.00000000e+00  3.34945995e-02  2.34726947e-01  8.13757318e-01
  1.00000000e+00  3.34945995e-02  2.34726947e-01  8.13757318e-01  1.00000000e+00
  3.34945995e-02  2.34726947e-01  8.13757318e-01  1.00000000e+00  3.34945995e-02
  2.34726947e-01  8.13757318e-01  1.00000000e+00  3.34945995e-02  2.34726947e-01
  8.13757318e-01  1.00000000e+00  3.34945995e-02  2.34726947e-01  8.13757318e-01
  1.00000000e+00  3.34945995e-02  2.34726947e-01  8.13757318e-01  1.00000000e+00
  3.34945995e-02  2.34726947e-01  8.13757318e-01  1.00000000e+00  3.34945995e-02
  2.34726947e-01  8.13757318e-01  1.00000000e+00  3.34945995e-02  2.34726947e-01
  8.13757318e-01  1.00000000e+00  3.34945995e-02  2.34726947e-01  8.13757318e-01
  1.00000000e+00
Coordinates of each shell                  R   N=         390
  7.42568555e-01 -1.39613618e-01 -1.01912786e+00  7.42568555e-01 -1.39613618e-01
 -1.01912786e+00  7.42568555e-01 -1.39613618e-01 -1.01912786e+00  7.42568555e-01
 -1.39613618e-01 -1.01912786e+00  7.42568555e-01 -1.39613618e-01 -1.01912786e+00
  7.42568555e-01 -1.39613618e-01 -1.01912786e+00  7.42568555e-01 -1.39613618e-01
 -1.01912786e+00  7.42568555e-01 -1.39613618e-01 -1.01912786e+00 -9.58698401e-01
 -1.44995175e+00  9.71738271e-01 -9.58698401e-01 -1.44995175e+00  9.71738271e-01
 -9.58698401e-01 -1.44995175e+00  9.71738271e-01 -9.58698401e-01 -1.44995175e+00
  9.71738271e-01 -9.58698401e-01 -1.44995175e+00  9.71738271e-01 -9.58698401e-01
 -1.44995175e+00  9.71738271e-01 -9.58698401e-01 -1.44995175e+00  9.71738271e-01
 -9.58698401e-01 -1.44995175e+00  9.71738271e-01 -3.01838604e+00  2.14944663e-01
  2.18414742e+00 -3.01838604e+00  2.14944663e-01  2.18414742e+00 -3.01838604e+00
  2.14944663e-01  2.18414742e+00 -3.01838604e+00  2.14944663e-01  2.18414742e+00
 -3.01838604e+00  2.14944663e-01  2.18414742e+00 -3.01838604e+00  2.14944663e-01
  2.18414742e+00 -3.01838604e+00  2.14944663e-01  2.18414742e+00 -3.01838604e+00
  2.14944663e-01  2.18414742e+00  2.29556693e-01 -2.25491059e+00  2.48079336e+00
  2.29556693e-01 -2.25491059e+00  2.48079336e+00 -1.94389449e+00 -3.05518054e+00
  1.05668945e-01 -1.94389449e+00 -3.05518054e+00  1.05668945e-01 -4.65582412e+00
 -1.42373528e+00  3.72224258e+00 -4.65582412e+00 -1.42373528e+00  3.72224258e+00
 -4.65582412e+00 -1.42373528e+00  3.72224258e+00 -4.65582412e+00 -1.42373528e+00
  3.72224258e+00 -4.65582412e+00 -1.42373528e+00  3.72224258e+00 -4.65582412e+00
 -1.42373528e+00  3.72224258e+00 -4.65582412e+00 -1.42373528e+00  3.72224258e+00
 -4.65582412e+00 -1.42373528e+00  3.72224258e+00  3.33569400e+00  6.66739769e-01
  4.63416251e-02  3.33569400e+00  6.66739769e-01  4.63416251e-02  3.33569400e+00
  6.66739769e-01  4.63416251e-02  3.33569400e+00  6.66739769e-01  4.63416251e-02
  3.33569400e+00  6.66739769e-01  4.63416251e-02  3.33569400e+00  6.66739769e-01
  4.63416251e-02  3.33569400e+00  6.66739769e-01  4.63416251e-02  3.33569400e+00
  6.66739769e-01  4.63416251e-02  5.00642986e+00  1.94976029e+00 -1.95422962e+00
  5.00642986e+00  1.94976029e+00 -1.95422962e+00  5.00642986e+00  1.94976029e+00
 -1.95422962e+00  5.00642986e+00  1.94976029e+00 -1.95422962e+00  5.00642986e+00
  1.94976029e+00 -1.95422962e+00  5.00642986e+00  1.94976029e+00 -1.95422962e+00
  5.00642986e+00  1.94976029e+00 -1.95422962e+00  5.00642986e+00  1.94976029e+00
 -1.95422962e+00  5.36184543e+00  2.59351250e-01 -4.28796877e+00  5.36184543e+00
  2.59351250e-01 -4.28796877e+00  5.36184543e+00  2.59351250e-01 -4.28796877e+00
  5.36184543e+00  2.59351250e-01 -4.28796877e+00  5.36184543e+00  2.59351250e-01
 -4.28796877e+00  5.36184543e+00  2.59351250e-01 -4.28796877e+00  5.36184543e+00
  2.59351250e-01 -4.28796877e+00  5.36184543e+00  2.59351250e-01 -4.28796877e+00
  2.80411179e+00 -5.78531178e-01 -5.37799570e+00  2.80411179e+00 -5.78531178e-01
 -5.37799570e+00  2.80411179e+00 -5.78531178e-01 -5.37799570e+00  2.80411179e+00
 -5.78531178e-01 -5.37799570e+00  2.80411179e+00 -5.78531178e-01 -5.37799570e+00
  2.80411179e+00 -5.78531178e-01 -5.37799570e+00  2.80411179e+00 -5.78531178e-01
 -5.37799570e+00  2.80411179e+00 -5.78531178e-01 -5.37799570e+00  1.13587196e+00
 -1.83510105e+00 -3.35975435e+00  1.13587196e+00 -1.83510105e+00 -3.35975435e+00
  1.13587196e+00 -1.83510105e+00 -3.35975435e+00  1.13587196e+00 -1.83510105e+00
 -3.35975435e+00  1.13587196e+00 -1.83510105e+00 -3.35975435e+00  1.13587196e+00
 -1.83510105e+00 -3.35975435e+00  1.13587196e+00 -1.83510105e+00 -3.35975435e+00
  1.13587196e+00 -1.83510105e+00 -3.35975435e+00 -1.93898295e+00  2.49961949e+00
  3.63056331e+00 -1.93898295e+00  2.49961949e+00  3.63056331e+00 -1.93898295e+00
  2.49961949e+00  3.63056331e+00 -1.93898295e+00  2.49961949e+00  3.63056331e+00
 -1.93898295e+00  2.49961949e+00  3.63056331e+00 -1.93898295e+00  2.49961949e+00
  3.63056331e+00 -1.93898295e+00  2.49961949e+00  3.63056331e+00 -1.93898295e+00
  2.49961949e+00  3.63056331e+00 -4.22431406e+00  9.35588211e-01  6.49299184e-01
 -4.22431406e+00  9.35588211e-01  6.49299184e-01 -6.60890918e-01  1.87395784e+00
  5.14241088e+00 -6.60890918e-01  1.87395784e+00  5.14241088e+00 -3.44687326e+00
  3.62481741e+00  4.49542613e+00 -3.44687326e+00  3.62481741e+00  4.49542613e+00
 -8.74129683e-01  3.76226085e+00  2.38092585e+00 -8.74129683e-01  3.76226085e+00
  2.38092585e+00 -7.01052706e+00 -2.96497998e-01  4.61211095e+00 -7.01052706e+00
 -2.96497998e-01  4.61211095e+00 -7.01052706e+00 -2.96497998e-01  4.61211095e+00
 -7.01052706e+00 -2.96497998e-01  4.61211095e+00 -7.01052706e+00 -2.96497998e-01
  4.61211095e+00 -7.01052706e+00 -2.96497998e-01  4.61211095e+00 -7.01052706e+00
 -2.96497998e-01  4.61211095e+00 -7.01052706e+00 -2.96497998e-01  4.61211095e+00
 -3.65415009e+00 -2.12679902e+00  5.21001906e+00 -3.65415009e+00 -2.12679902e+00
  5.21001906e+00 -8.14761060e+00  2.73393985e-01  2.97525431e+00 -8.14761060e+00
  2.73393985e-01  2.97525431e+00 -6.79333785e+00  1.37161193e+00  5.84879126e+00
 -6.79333785e+00  1.37161193e+00  5.84879126e+00 -8.08896531e+00 -1.72432112e+00
  5.65371213e+00 -8.08896531e+00 -1.72432112e+00  5.65371213e+00 -2.30467209e-01
  1.58310470e+00 -1.67750268e+00 -2.30467209e-01  1.58310470e+00 -1.67750268e+00
  4.30900291e+00 -1.03022781e+00  7.59284831e-01  4.30900291e+00 -1.03022781e+00
  7.59284831e-01  3.09020626e+00  1.92306044e+00  1.67756569e+00  3.09020626e+00
  1.92306044e+00  1.67756569e+00  3.09119690e+00 -1.87588787e+00 -6.97256200e+00
  3.09119690e+00 -1.87588787e+00 -6.97256200e+00  1.81192174e+00  1.08291527e+00
 -6.14280281e+00  1.81192174e+00  1.08291527e+00 -6.14280281e+00 -7.07756426e-01
 -2.33635276e+00 -4.17307726e+00 -7.07756426e-01 -2.33635276e+00 -4.17307726e+00
  2.01323977e+00 -3.62318105e+00 -2.75271030e+00  2.01323977e+00 -3.62318105e+00
 -2.75271030e+00  6.84885800e+00  2.43933303e+00 -1.13306516e+00  6.84885800e+00
  2.43933303e+00 -1.13306516e+00  4.12614904e+00  3.74348734e+00 -2.53513756e+00
  4.12614904e+00  3.74348734e+00 -2.53513756e+00  6.46007575e+00 -1.42372252e+00
 -3.74956791e+00  6.46007575e+00 -1.42372252e+00 -3.74956791e+00  6.47141671e+00
  1.25054874e+00 -5.73508970e+00  6.47141671e+00  1.25054874e+00 -5.73508970e+00
Total Energy                               R     -4.484806077790723e+02
Alpha Orbital Energies                     R   N=         251
 -1.43199803e+01 -1.02141496e+01 -1.02026493e+01 -1.01863001e+01 -1.01797773e+01
 -1.01793739e+01 -1.01791361e+01 -1.01783554e+01 -1.01779231e+01 -1.01757191e+01
 -1.01754240e+01 -9.01627952e-01 -8.31391882e-01 -7.75848050e-01 -7.38028352e-01
 -7.33670211e-01 -6.82240610e-01 -6.55118918e-01 -6.07158034e-01 -5.96310806e-01
 -5.71991465e-01 -5.50548411e-01 -4.77026991e-01 -4.75489565e-01 -4.55019615e-01
 -4.41303985e-01 -4.39914524e-01 -4.34907585e-01 -4.27740718e-01 -4.08937698e-01
 -3.94952579e-01 -3.87689267e-01 -3.75911677e-01 -3.72926719e-01 -3.67125315e-01
 -3.51233582e-01 -3.44491827e-01 -3.40191876e-01 -3.29884220e-01 -3.24280919e-01
 -3.13460456e-01 -2.94588840e-01 -2.91044845e-01 -2.19534971e-01  3.28299050e-03
  1.07915451e-02  1.51684580e-02  1.93947980e-02  2.87152131e-02  3.23037864e-02
  3.60255293e-02  4.64629556e-02  5.28147616e-02  5.49244067e-02  5.81933722e-02
  6.22775348e-02  7.37274681e-02  7.78113620e-02  8.08140390e-02  8.75088752e-02
  8.98183784e-02  9.51506348e-02  9.76366883e-02  1.01910489e-01  1.08504732e-01
  1.13768401e-01  1.17209755e-01  1.23616969e-01  1.32893004e-01  1.40636250e-01
  1.45052894e-01  1.52721189e-01  1.55897502e-01  1.65979597e-01  1.68571111e-01
  1.74470301e-01  1.81023436e-01  1.88068514e-01  1.92504977e-01  1.97141434e-01
  1.99791556e-01  2.03506110e-01  2.05270749e-01  2.11320779e-01  2.14011820e-01
  2.17077273e-01  2.22346417e-01  2.26595553e-01  2.30373934e-01  2.37319891e-01
  2.39124300e-01  2.49035124e-01  2.51972985e-01  2.56355754e-01  2.61008642e-01
  2.64557120e-01  2.68850448e-01  2.76845561e-01  2.82154978e-01  2.87959673e-01
  2.95529517e-01  2.99794564e-01  3.06334107e-01  3.11835862e-01  3.16764486e-01
  3.18721100e-01  3.24071846e-01  3.38608408e-01  3.45924499e-01  3.55506043e-01
  3.61603455e-01  3.79554892e-01  3.85881911e-01  3.89251002e-01  3.96762268e-01
  4.12529425e-01  4.26545671e-01  4.30856366e-01  4.43312765e-01  5.02718774e-01
  6.02587262e-01  6.24338224e-01  6.50632922e-01  6.56959557e-01  6.67697706e-01
  6.71037127e-01  6.81682883e-01  6.94443330e-01  6.99282204e-01  7.05064545e-01
  7.07335621e-01  7.16279911e-01  7.19145123e-01  7.36554282e-01  7.49324805e-01
  7.57335018e-01  7.68994423e-01  7.81259839e-01  8.00846848e-01  8.06645736e-01
  8.13338220e-01  8.42083927e-01  8.49910600e-01  8.77101037e-01  8.87073200e-01
  8.96021008e-01  9.27724497e-01  9.58599453e-01  9.70067362e-01  9.85372714e-01
  9.90213483e-01  1.00136612e+00  1.01040136e+00  1.02038887e+00  1.03138811e+00
  1.03376692e+00  1.04369277e+00  1.05713323e+00  1.06776303e+00  1.08362734e+00
  1.09527996e+00  1.10510569e+00  1.11340944e+00  1.12334315e+00  1.13350851e+00
  1.14012428e+00  1.16130082e+00  1.16401013e+00  1.16895905e+00  1.18056534e+00
  1.18979002e+00  1.20031294e+00  1.20626372e+00  1.21630411e+00  1.26192235e+00
  1.29503163e+00  1.37170731e+00  1.40104239e+00  1.41584787e+00  1.42451652e+00
  1.43814181e+00  1.48844967e+00  1.51116581e+00  1.52698484e+00  1.59158983e+00
  1.64089572e+00  1.66554744e+00  1.72130928e+00  1.74152630e+00  1.75680981e+00
  1.76902437e+00  1.78533080e+00  1.79775752e+00  1.81856423e+00  1.84649366e+00
  1.90103150e+00  1.91511060e+00  1.92869306e+00  1.93766078e+00  1.95062493e+00
  1.96811232e+00  1.97431181e+00  2.00875512e+00  2.02715367e+00  2.04261204e+00
  2.04691995e+00  2.07732637e+00  2.07983047e+00  2.09113825e+00  2.10008969e+00
  2.12018195e+00  2.15182735e+00  2.16450371e+00  2.18186473e+00  2.22155579e+00
  2.25474720e+00  2.31684738e+00  2.32325391e+00  2.33061991e+00  2.36027955e+00
  2.37029124e+00  2.40265124e+00  2.40971842e+00  2.42183622e+00  2.43014787e+00
  2.43915272e+00  2.47416971e+00  2.53098945e+00  2.55300638e+00  2.58258708e+00
  2.63386916e+00  2.67149315e+00  2.67944242e+00  2.73401383e+00  2.75616789e+00
  2.77700180e+00  2.81206051e+00  2.83713173e+00  2.88654456e+00  2.92105045e+00
  4.09223169e+00  4.18077787e+00  4.25822190e+00  4.30305270e+00  4.32281091e+00
  4.34346919e+00  4.43924922e+00  4.60606085e+00  4.61686806e+00  4.64437621e+00
  4.71537884e+00
Alpha MO coefficients                      R   N=       63001
 -4.40258781e-07 -5.82366593e-06  1.13721940e-05 -1.67173814e-05 -8.92286765e-06
 -5.89448714e-05 -3.24149854e-05  1.59368089e-04  8.24763876e-05  1.30796669e-06
  3.18151752e-07  5.85209153e-06  5.23825737e-07 -2.60814055e-06 -1.07095199e-05
  5.55318234e-03  2.62413212e-04 -6.88448118e-04  3.68240432e-04  1.15910162e-05
  1.17367343e-04  1.16584573e-05  1.52329502e-06  1.04095063e-05 -3.90606649e-04
  1.34776882e-04 -5.60290740e-05 -3.44849133e-04 -4.40726460e-05  1.34514401e-05
 -2.97696011e-05 -2.59555175e-06  4.57145113e-05 -9.37036932e-06 -6.65587300e-03
 -8.45528884e-04 -1.49818587e-03 -1.87251678e-04 -3.22120255e-05 -7.73158943e-05
 -1.63877375e-04 -1.53877100e-04  1.19782932e-04  9.89742436e-04  5.38700000e-05
 -1.65520283e-04  4.93258439e-04  1.55456878e-05  2.23076903e-05  2.35461613e-05