Generated by Psi4
     FORCE                           RHF                       TESTBAS
Number of atoms                            I               34
Charge                                     I                0
Multiplicity                               I                1
Number of electrons                        I              140
Number of alpha electrons                  I               70
Number of beta electrons                   I               70
Number of basis functions                  I              365
Number of independent functions            I              365
Atomic numbers                             I   N=          34
           6           6           6           6          16           1
           1           1           6           6          16           6
           6           6           1           1           1           6
           6           1           6           1           1           1
           7           1           6           6           1           1
           1           1           1           1
Nuclear charges                            R   N=          34
  6.00000000e+00  6.00000000e+00  6.00000000e+00  6.00000000e+00  1.60000000e+01
  1.00000000e+00  1.00000000e+00  1.00000000e+00  6.00000000e+00  6.00000000e+00
  1.60000000e+01  6.00000000e+00  6.00000000e+00  6.00000000e+00  1.00000000e+00
  1.00000000e+00  1.00000000e+00  6.00000000e+00  6.00000000e+00  1.00000000e+00
  6.00000000e+00  1.00000000e+00  1.00000000e+00  1.00000000e+00  7.00000000e+00
  1.00000000e+00  6.00000000e+00  6.00000000e+00  1.00000000e+00  1.00000000e+00
  1.00000000e+00  1.00000000e+00  1.00000000e+00  1.00000000e+00
Current cartesian coordinates              R   N=         102
  4.07653054e+00 -2.09419004e+00 -9.98143029e-01  1.56136896e+00 -1.44228348e+00
 -1.16154827e+00  4.94668498e+00 -3.59807064e+00 -3.05853255e+00  3.07728648e+00
 -4.11834413e+00 -4.77356097e+00  2.26156790e-01 -2.77393600e+00 -3.88678047e+00
  5.26440680e+00 -1.49853862e+00  5.63431265e-01  6.87546257e+00 -4.26628297e+00
 -3.25097406e+00  3.20119245e+00 -5.22174005e+00 -6.49154436e+00  6.49912075e-02
  4.77361319e-02  6.80874957e-01  2.74536910e-01 -7.19118106e-01  3.35909776e+00
  4.05260455e-01 -3.91134562e+00  4.25395591e+00  4.51779407e-01 -3.13295764e+00
  7.43489788e+00  3.89785113e-01 -5.68368399e-01  7.79392218e+00  2.99512689e-01
  8.01777416e-01  5.47503962e+00  5.53721525e-01 -4.60732492e+00  8.84930597e+00
  4.40687019e-01  3.16803734e-01  9.64311251e+00  3.00798488e-01  2.84893845e+00
  5.36090279e+00 -1.42247607e+00  2.04191816e+00  7.52026102e-02 -1.73246018e+00
  3.33815418e+00 -2.46628028e+00 -2.55103085e+00  2.84568608e+00  1.59167126e+00
  7.29869680e-01  4.67283047e+00 -3.31241567e+00  1.37436271e+00  6.04315402e+00
 -1.90084832e+00  4.52878503e-01  5.66654370e+00 -5.10988444e+00  2.23972328e+00
  3.28421321e+00 -3.57585903e+00 -3.99521904e+00  4.97750264e+00 -2.38224823e+00
 -2.16681920e+00  1.90500701e+00 -3.89456849e+00 -5.11953325e+00  5.41755543e+00
 -4.85597084e+00 -3.67586072e+00  7.33971494e+00 -9.98429174e-01 -5.49048733e+00
  3.60920882e+00 -5.79286287e+00 -3.93674299e+00  6.58563633e+00 -6.12918314e+00
 -6.93055943e+00  6.39422014e+00 -4.61560126e+00 -2.81908835e+00  6.98880279e+00
  8.51647899e-01 -5.53574908e+00  8.19418774e+00 -6.80095712e-01 -2.49152710e+00
  8.74291243e+00 -1.99931759e+00
Integer atomic weights                     I   N=          34
          12          12          12          12          31           1
           1           1          12          12          31          12
          12          12           1           1           1          12
          12           1          12           1           1           1
          14           1          12          12           1           1
           1           1           1           1
Real atomic weights                        R   N=          34
  1.20000000e+01  1.20000000e+01  1.20000000e+01  1.20000000e+01  3.19720712e+01
  1.00782503e+00  1.00782503e+00  1.00782503e+00  1.20000000e+01  1.20000000e+01
  3.19720712e+01  1.20000000e+01  1.20000000e+01  1.20000000e+01  1.00782503e+00
  1.00782503e+00  1.00782503e+00  1.20000000e+01  1.20000000e+01  1.00782503e+00
  1.20000000e+01  1.00782503e+00  1.00782503e+00  1.00782503e+00  1.40030740e+01
  1.00782503e+00  1.20000000e+01  1.20000000e+01  1.00782503e+00  1.00782503e+00
  1.00782503e+00  1.00782503e+00  1.00782503e+00  1.00782503e+00
Number of primitive shells                 I              381
Number of contracted shells                I              174
Pure/Cartesian d shells                    I                1
Pure/Cartesian f shells                    I                1
Highest angular momentum                   I                2
Largest degree of contraction              I                6
Shell types                                I   N=         174
           0           0           1           0           1           2
           0           1           0           0           1           0
           1           2           0           1           0           0
           1           0           1           2           0           1
           0           0           1           0           1           2
           0           1           0           0           1           0
           1           0           1           2           0           1
           0           0           0           0           0           0
           0           0           1           0           1           2
           0           1           0           0           1           0
           1           2           0           1           0           0
           1           0           1           0           1           2
           0           1           0           0           1           0
           1           2           0           1           0           0
           1           0           1           2           0           1
           0           0           1           0           1           2
           0           1           0           0           0           0
           0           0           0           0           1           0
           1           2           0           1           0           0
           1           0           1           2           0           1
           0           0           0           0           1           0
           1           2           0           1           0           0
           0           0           0           0           0           0
           1           0           1           2           0           1
           0           0           0           0           1           0
           1           2           0           1           0           0
           1           0           1           2           0           1
           0           0           0           0           0           0
           0           0           0           0           0           0
Number of primitives per shell             I   N=         174
           6           3           3           1           1           1
           1           1           6           3           3           1
           1           1           1           1           6           3
           3           1           1           1           1           1
           6           3           3           1           1           1
           1           1           6           6           6           3
           3           1           1           1           1           1
           3           1           3           1           3           1
           6           3           3           1           1           1
           1           1           6           3           3           1
           1           1           1           1           6           6
           6           3           3           1           1           1
           1           1           6           3           3           1
           1           1           1           1           6           3
           3           1           1           1           1           1
           6           3           3           1           1           1
           1           1           3           1           3           1
           3           1           6           3           3           1
           1           1           1           1           6           3
           3           1           1           1           1           1
           3           1           6           3           3           1
           1           1           1           1           3           1
           3           1           3           1           6           3
           3           1           1           1           1           1
           3           1           6           3           3           1
           1           1           1           1           6           3
           3           1           1           1           1           1
           3           1           3           1           3           1
           3           1           3           1           3           1
Shell to atom map                          I   N=         174
           1           1           1           1           1           1
           1           1           2           2           2           2
           2           2           2           2           3           3
           3           3           3           3           3           3
           4           4           4           4           4           4
           4           4           5           5           5           5
           5           5           5           5           5           5
           6           6           7           7           8           8
           9           9           9           9           9           9
           9           9          10          10          10          10
          10          10          10          10          11          11
          11          11          11          11          11          11
          11          11          12          12          12          12
          12          12          12          12          13          13
          13          13          13          13          13          13
          14          14          14          14          14          14
          14          14          15          15          16          16
          17          17          18          18          18          18
          18          18          18          18          19          19
          19          19          19          19          19          19
          20          20          21          21          21          21
          21          21          21          21          22          22
          23          23          24          24          25          25
          25          25          25          25          25          25
          26          26          27          27          27          27
          27          27          27          27          28          28
          28          28          28          28          28          28
          29          29          30          30          31          31
          32          32          33          33          34          34
Primitive exponents                        R   N=         381
  3.04752490e+03  4.57369510e+02  1.03948690e+02  2.92101550e+01  9.28666300e+00
  3.16392700e+00  7.86827240e+00  1.88128850e+00  5.44249300e-01  7.86827240e+00
  1.88128850e+00  5.44249300e-01  1.68714400e-01  1.68714400e-01  8.00000000e-01
  4.38000000e-02  4.38000000e-02  3.04752490e+03  4.57369510e+02  1.03948690e+02
  2.92101550e+01  9.28666300e+00  3.16392700e+00  7.86827240e+00  1.88128850e+00
  5.44249300e-01  7.86827240e+00  1.88128850e+00  5.44249300e-01  1.68714400e-01
  1.68714400e-01  8.00000000e-01  4.38000000e-02  4.38000000e-02  3.04752490e+03
  4.57369510e+02  1.03948690e+02  2.92101550e+01  9.28666300e+00  3.16392700e+00
  7.86827240e+00  1.88128850e+00  5.44249300e-01  7.86827240e+00  1.88128850e+00
  5.44249300e-01  1.68714400e-01  1.68714400e-01  8.00000000e-01  4.38000000e-02
  4.38000000e-02  3.04752490e+03  4.57369510e+02  1.03948690e+02  2.92101550e+01
  9.28666300e+00  3.16392700e+00  7.86827240e+00  1.88128850e+00  5.44249300e-01
  7.86827240e+00  1.88128850e+00  5.44249300e-01  1.68714400e-01  1.68714400e-01
  8.00000000e-01  4.38000000e-02  4.38000000e-02  2.19171000e+04  3.30149000e+03
  7.54146000e+02  2.12711000e+02  6.79896000e+01  2.30515000e+01  4.23735000e+02
  1.00710000e+02  3.21599000e+01  1.18079000e+01  4.63110000e+00  1.87025000e+00
  4.23735000e+02  1.00710000e+02  3.21599000e+01  1.18079000e+01  4.63110000e+00
  1.87025000e+00  2.61584000e+00  9.22167000e-01  3.41287000e-01  2.61584000e+00
  9.22167000e-01  3.41287000e-01  1.17167000e-01  1.17167000e-01  6.50000000e-01
  4.05000000e-02  4.05000000e-02  1.87311370e+01  2.82539370e+00  6.40121700e-01
  1.61277800e-01  1.87311370e+01  2.82539370e+00  6.40121700e-01  1.61277800e-01
  1.87311370e+01  2.82539370e+00  6.40121700e-01  1.61277800e-01  3.04752490e+03
  4.57369510e+02  1.03948690e+02  2.92101550e+01  9.28666300e+00  3.16392700e+00
  7.86827240e+00  1.88128850e+00  5.44249300e-01  7.86827240e+00  1.88128850e+00
  5.44249300e-01  1.68714400e-01  1.68714400e-01  8.00000000e-01  4.38000000e-02
  4.38000000e-02  3.04752490e+03  4.57369510e+02  1.03948690e+02  2.92101550e+01
  9.28666300e+00  3.16392700e+00  7.86827240e+00  1.88128850e+00  5.44249300e-01
  7.86827240e+00  1.88128850e+00  5.44249300e-01  1.68714400e-01  1.68714400e-01
  8.00000000e-01  4.38000000e-02  4.38000000e-02  2.19171000e+04  3.30149000e+03
  7.54146000e+02  2.12711000e+02  6.79896000e+01  2.30515000e+01  4.23735000e+02
  1.00710000e+02  3.21599000e+01  1.18079000e+01  4.63110000e+00  1.87025000e+00
  4.23735000e+02  1.00710000e+02  3.21599000e+01  1.18079000e+01  4.63110000e+00
  1.87025000e+00  2.61584000e+00  9.22167000e-01  3.41287000e-01  2.61584000e+00
  9.22167000e-01  3.41287000e-01  1.17167000e-01  1.17167000e-01  6.50000000e-01
  4.05000000e-02  4.05000000e-02  3.04752490e+03  4.57369510e+02  1.03948690e+02
  2.92101550e+01  9.28666300e+00  3.16392700e+00  7.86827240e+00  1.88128850e+00
  5.44249300e-01  7.86827240e+00  1.88128850e+00  5.44249300e-01  1.68714400e-01
  1.68714400e-01  8.00000000e-01  4.38000000e-02  4.38000000e-02  3.04752490e+03
  4.57369510e+02  1.03948690e+02  2.92101550e+01  9.28666300e+00  3.16392700e+00
  7.86827240e+00  1.88128850e+00  5.44249300e-01  7.86827240e+00  1.88128850e+00
  5.44249300e-01  1.68714400e-01  1.68714400e-01  8.00000000e-01  4.38000000e-02
  4.38000000e-02  3.04752490e+03  4.57369510e+02  1.03948690e+02  2.92101550e+01
  9.28666300e+00  3.16392700e+00  7.86827240e+00  1.88128850e+00  5.44249300e-01
  7.86827240e+00  1.88128850e+00  5.44249300e-01  1.68714400e-01  1.68714400e-01
  8.00000000e-01  4.38000000e-02  4.38000000e-02  1.87311370e+01  2.82539370e+00
  6.40121700e-01  1.61277800e-01  1.87311370e+01  2.82539370e+00  6.40121700e-01
  1.61277800e-01  1.87311370e+01  2.82539370e+00  6.40121700e-01  1.61277800e-01
  3.04752490e+03  4.57369510e+02  1.03948690e+02  2.92101550e+01  9.28666300e+00
  3.16392700e+00  7.86827240e+00  1.88128850e+00  5.44249300e-01  7.86827240e+00
  1.88128850e+00  5.44249300e-01  1.68714400e-01  1.68714400e-01  8.00000000e-01
  4.38000000e-02  4.38000000e-02  3.04752490e+03  4.57369510e+02  1.03948690e+02
  2.92101550e+01  9.28666300e+00  3.16392700e+00  7.86827240e+00  1.88128850e+00
  5.44249300e-01  7.86827240e+00  1.88128850e+00  5.44249300e-01  1.68714400e-01
  1.68714400e-01  8.00000000e-01  4.38000000e-02  4.38000000e-02  1.87311370e+01
  2.82539370e+00  6.40121700e-01  1.61277800e-01  3.04752490e+03  4.57369510e+02
  1.03948690e+02  2.92101550e+01  9.28666300e+00  3.16392700e+00  7.86827240e+00
  1.88128850e+00  5.44249300e-01  7.86827240e+00  1.88128850e+00  5.44249300e-01
  1.68714400e-01  1.68714400e-01  8.00000000e-01  4.38000000e-02  4.38000000e-02
  1.87311370e+01  2.82539370e+00  6.40121700e-01  1.61277800e-01  1.87311370e+01
  2.82539370e+00  6.40121700e-01  1.61277800e-01  1.87311370e+01  2.82539370e+00
  6.40121700e-01  1.61277800e-01  4.17351100e+03  6.27457900e+02  1.42902100e+02
  4.02343300e+01  1.28202100e+01  4.39043700e+00  1.16263580e+01  2.71628000e+00
  7.72218000e-01  1.16263580e+01  2.71628000e+00  7.72218000e-01  2.12031300e-01
  2.12031300e-01  8.00000000e-01  6.39000000e-02  6.39000000e-02  1.87311370e+01
  2.82539370e+00  6.40121700e-01  1.61277800e-01  3.04752490e+03  4.57369510e+02
  1.03948690e+02  2.92101550e+01  9.28666300e+00  3.16392700e+00  7.86827240e+00
  1.88128850e+00  5.44249300e-01  7.86827240e+00  1.88128850e+00  5.44249300e-01
  1.68714400e-01  1.68714400e-01  8.00000000e-01  4.38000000e-02  4.38000000e-02
  3.04752490e+03  4.57369510e+02  1.03948690e+02  2.92101550e+01  9.28666300e+00
  3.16392700e+00  7.86827240e+00  1.88128850e+00  5.44249300e-01  7.86827240e+00
  1.88128850e+00  5.44249300e-01  1.68714400e-01  1.68714400e-01  8.00000000e-01
  4.38000000e-02  4.38000000e-02  1.87311370e+01  2.82539370e+00  6.40121700e-01
  1.61277800e-01  1.87311370e+01  2.82539370e+00  6.40121700e-01  1.61277800e-01
  1.87311370e+01  2.82539370e+00  6.40121700e-01  1.61277800e-01  1.87311370e+01
  2.82539370e+00  6.40121700e-01  1.61277800e-01  1.87311370e+01  2.82539370e+00
  6.40121700e-01  1.61277800e-01  1.87311370e+01  2.82539370e+00  6.40121700e-01
  1.61277800e-01
Contraction coefficients                   R   N=         381
  1.83470016e-03  1.40373012e-02  6.88426061e-02  2.32184421e-01  4.67941342e-01
  3.62312032e-01 -1.19332409e-01 -1.60854212e-01  1.14345648e+00  6.89990956e-02
  3.16423980e-01  7.44308252e-01  1.00000000e+00  1.00000000e+00  1.00000000e+00
  1.00000000e+00  1.00000000e+00  1.83470016e-03  1.40373012e-02  6.88426061e-02
  2.32184421e-01  4.67941342e-01  3.62312032e-01 -1.19332409e-01 -1.60854212e-01
  1.14345648e+00  6.89990956e-02  3.16423980e-01  7.44308252e-01  1.00000000e+00
  1.00000000e+00  1.00000000e+00  1.00000000e+00  1.00000000e+00  1.83470016e-03
  1.40373012e-02  6.88426061e-02  2.32184421e-01  4.67941342e-01  3.62312032e-01
 -1.19332409e-01 -1.60854212e-01  1.14345648e+00  6.89990956e-02  3.16423980e-01
  7.44308252e-01  1.00000000e+00  1.00000000e+00  1.00000000e+00  1.00000000e+00
  1.00000000e+00  1.83470016e-03  1.40373012e-02  6.88426061e-02  2.32184421e-01
  4.67941342e-01  3.62312032e-01 -1.19332409e-01 -1.60854212e-01  1.14345648e+00
  6.89990956e-02  3.16423980e-01  7.44308252e-01  1.00000000e+00  1.00000000e+00
  1.00000000e+00  1.00000000e+00  1.00000000e+00  1.86900121e-03  1.42300092e-02
  6.96960451e-02  2.38487154e-01  4.83307312e-01  3.38074219e-01 -2.37670050e-03
 -3.16930066e-02 -1.13317024e-01  5.60900117e-02  5.92255123e-01  4.55006095e-01
  4.06100032e-03  3.06810024e-02  1.30452010e-01  3.27205026e-01  4.52851036e-01
  2.56042020e-01 -2.50373114e-01  6.69567631e-02  1.05450627e+00 -1.45109929e-02
  3.10262847e-01  7.54482628e-01  1.00000000e+00  1.00000000e+00  1.00000000e+00
  1.00000000e+00  1.00000000e+00  3.34945995e-02  2.34726947e-01  8.13757318e-01
  1.00000000e+00  3.34945995e-02  2.34726947e-01  8.13757318e-01  1.00000000e+00
  3.34945995e-02  2.34726947e-01  8.13757318e-01  1.00000000e+00  1.83470016e-03
  1.40373012e-02  6.88426061e-02  2.32184421e-01  4.67941342e-01  3.62312032e-01
 -1.19332409e-01 -1.60854212e-01  1.14345648e+00  6.89990956e-02  3.16423980e-01
  7.44308252e-01  1.00000000e+00  1.00000000e+00  1.00000000e+00  1.00000000e+00
  1.00000000e+00  1.83470016e-03  1.40373012e-02  6.88426061e-02  2.32184421e-01
  4.67941342e-01  3.62312032e-01 -1.19332409e-01 -1.60854212e-01  1.14345648e+00
  6.89990956e-02  3.16423980e-01  7.44308252e-01  1.00000000e+00  1.00000000e+00
  1.00000000e+00  1.00000000e+00  1.00000000e+00  1.86900121e-03  1.42300092e-02
  6.96960451e-02  2.38487154e-01  4.83307312e-01  3.38074219e-01 -2.37670050e-03
 -3.16930066e-02 -1.13317024e-01  5.60900117e-02  5.92255123e-01  4.55006095e-01
  4.06100032e-03  3.06810024e-02  1.30452010e-01  3.27205026e-01  4.52851036e-01
  2.56042020e-01 -2.50373114e-01  6.69567631e-02  1.05450627e+00 -1.45109929e-02
  3.10262847e-01  7.54482628e-01  1.00000000e+00  1.00000000e+00  1.00000000e+00
  1.00000000e+00  1.00000000e+00  1.83470016e-03  1.40373012e-02  6.88426061e-02
  2.32184421e-01  4.67941342e-01  3.62312032e-01 -1.19332409e-01 -1.60854212e-01
  1.14345648e+00  6.89990956e-02  3.16423980e-01  7.44308252e-01  1.00000000e+00
  1.00000000e+00  1.00000000e+00  1.00000000e+00  1.00000000e+00  1.83470016e-03
  1.40373012e-02  6.88426061e-02  2.32184421e-01  4.67941342e-01  3.62312032e-01
 -1.19332409e-01 -1.60854212e-01  1.14345648e+00  6.89990956e-02  3.16423980e-01
  7.44308252e-01  1.00000000e+00  1.00000000e+00  1.00000000e+00  1.00000000e+00
  1.00000000e+00  1.83470016e-03  1.40373012e-02  6.88426061e-02  2.32184421e-01
  4.67941342e-01  3.62312032e-01 -1.19332409e-01 -1.60854212e-01  1.14345648e+00
  6.89990956e-02  3.16423980e-01  7.44308252e-01  1.00000000e+00  1.00000000e+00
  1.00000000e+00  1.00000000e+00  1.00000000e+00  3.34945995e-02  2.34726947e-01
  8.13757318e-01  1.00000000e+00  3.34945995e-02  2.34726947e-01  8.13757318e-01
  1.00000000e+00  3.34945995e-02  2.34726947e-01  8.13757318e-01  1.00000000e+00
  1.83470016e-03  1.40373012e-02  6.88426061e-02  2.32184421e-01  4.67941342e-01
  3.62312032e-01 -1.19332409e-01 -1.60854212e-01  1.14345648e+00  6.89990956e-02
  3.16423980e-01  7.44308252e-01  1.00000000e+00  1.00000000e+00  1.00000000e+00
  1.00000000e+00  1.00000000e+00  1.83470016e-03  1.40373012e-02  6.88426061e-02
  2.32184421e-01  4.67941342e-01  3.62312032e-01 -1.19332409e-01 -1.60854212e-01
  1.14345648e+00  6.89990956e-02  3.16423980e-01  7.44308252e-01  1.00000000e+00
  1.00000000e+00  1.00000000e+00  1.00000000e+00  1.00000000e+00  3.34945995e-02
  2.34726947e-01  8.13757318e-01  1.00000000e+00  1.83470016e-03  1.40373012e-02
  6.88426061e-02  2.32184421e-01  4.67941342e-01  3.62312032e-01 -1.19332409e-01
 -1.60854212e-01  1.14345648e+00  6.89990956e-02  3.16423980e-01  7.44308252e-01
  1.00000000e+00  1.00000000e+00  1.00000000e+00  1.00000000e+00  1.00000000e+00
  3.34945995e-02  2.34726947e-01  8.13757318e-01  1.00000000e+00  3.34945995e-02
  2.34726947e-01  8.13757318e-01  1.00000000e+00  3.34945995e-02  2.34726947e-01
  8.13757318e-01  1.00000000e+00  1.83479944e-03  1.39949958e-02  6.85869792e-02
  2.32240930e-01  4.69069858e-01  3.60454891e-01 -1.14961023e-01 -1.69118034e-01
  1.14585223e+00  6.75800232e-02  3.23907111e-01  7.40895255e-01  1.00000000e+00
  1.00000000e+00  1.00000000e+00  1.00000000e+00  1.00000000e+00  3.34945995e-02
  2.34726947e-01  8.13757318e-01  1.00000000e+00  1.83470016e-03  1.40373012e-02
  6.88426061e-02  2.32184421e-01  4.67941342e-01  3.62312032e-01 -1.19332409e-01
 -1.60854212e-01  1.14345648e+00  6.89990956e-02  3.16423980e-01  7.44308252e-01
  1.00000000e+00  1.00000000e+00  1.00000000e+00  1.00000000e+00  1.00000000e+00
  1.83470016e-03  1.40373012e-02  6.88426061e-02  2.32184421e-01  4.67941342e-01
  3.62312032e-01 -1.19332409e-01 -1.60854212e-01  1.14345648e+00  6.89990956e-02
  3.16423980e-01  7.44308252e-01  1.00000000e+00  1.00000000e+00  1.00000000e+00
  1.00000000e+00  1.00000000e+00  3.34945995e-02  2.34726947e-01  8.13757318e-01
  1.00000000e+00  3.34945995e-02  2.34726947e-01  8.13757318e-01  1.00000000e+00
  3.34945995e-02  2.34726947e-01  8.13757318e-01  1.00000000e+00  3.34945995e-02
  2.34726947e-01  8.13757318e-01  1.00000000e+00  3.34945995e-02  2.34726947e-01
  8.13757318e-01  1.00000000e+00  3.34945995e-02  2.34726947e-01  8.13757318e-01
  1.00000000e+00
Coordinates of each shell                  R   N=         522
  4.07653054e+00 -2.09419004e+00 -9.98143029e-01  4.07653054e+00 -2.09419004e+00
 -9.98143029e-01  4.07653054e+00 -2.09419004e+00 -9.98143029e-01  4.07653054e+00
 -2.09419004e+00 -9.98143029e-01  4.07653054e+00 -2.09419004e+00 -9.98143029e-01
  4.07653054e+00 -2.09419004e+00 -9.98143029e-01  4.07653054e+00 -2.09419004e+00
 -9.98143029e-01  4.07653054e+00 -2.09419004e+00 -9.98143029e-01  1.56136896e+00
 -1.44228348e+00 -1.16154827e+00  1.56136896e+00 -1.44228348e+00 -1.16154827e+00
  1.56136896e+00 -1.44228348e+00 -1.16154827e+00  1.56136896e+00 -1.44228348e+00
 -1.16154827e+00  1.56136896e+00 -1.44228348e+00 -1.16154827e+00  1.56136896e+00
 -1.44228348e+00 -1.16154827e+00  1.56136896e+00 -1.44228348e+00 -1.16154827e+00
  1.56136896e+00 -1.44228348e+00 -1.16154827e+00  4.94668498e+00 -3.59807064e+00
 -3.05853255e+00  4.94668498e+00 -3.59807064e+00 -3.05853255e+00  4.94668498e+00
 -3.59807064e+00 -3.05853255e+00  4.94668498e+00 -3.59807064e+00 -3.05853255e+00
  4.94668498e+00 -3.59807064e+00 -3.05853255e+00  4.94668498e+00 -3.59807064e+00
 -3.05853255e+00  4.94668498e+00 -3.59807064e+00 -3.05853255e+00  4.94668498e+00
 -3.59807064e+00 -3.05853255e+00  3.07728648e+00 -4.11834413e+00 -4.77356097e+00
  3.07728648e+00 -4.11834413e+00 -4.77356097e+00  3.07728648e+00 -4.11834413e+00
 -4.77356097e+00  3.07728648e+00 -4.11834413e+00 -4.77356097e+00  3.07728648e+00
 -4.11834413e+00 -4.77356097e+00  3.07728648e+00 -4.11834413e+00 -4.77356097e+00
  3.07728648e+00 -4.11834413e+00 -4.77356097e+00  3.07728648e+00 -4.11834413e+00
 -4.77356097e+00  2.26156790e-01 -2.77393600e+00 -3.88678047e+00  2.26156790e-01
 -2.77393600e+00 -3.88678047e+00  2.26156790e-01 -2.77393600e+00 -3.88678047e+00
  2.26156790e-01 -2.77393600e+00 -3.88678047e+00  2.26156790e-01 -2.77393600e+00
 -3.88678047e+00  2.26156790e-01 -2.77393600e+00 -3.88678047e+00  2.26156790e-01
 -2.77393600e+00 -3.88678047e+00  2.26156790e-01 -2.77393600e+00 -3.88678047e+00
  2.26156790e-01 -2.77393600e+00 -3.88678047e+00  2.26156790e-01 -2.77393600e+00
 -3.88678047e+00  5.26440680e+00 -1.49853862e+00  5.63431265e-01  5.26440680e+00
 -1.49853862e+00  5.63431265e-01  6.87546257e+00 -4.26628297e+00 -3.25097406e+00
  6.87546257e+00 -4.26628297e+00 -3.25097406e+00  3.20119245e+00 -5.22174005e+00
 -6.49154436e+00  3.20119245e+00 -5.22174005e+00 -6.49154436e+00  6.49912075e-02
  4.77361319e-02  6.80874957e-01  6.49912075e-02  4.77361319e-02  6.80874957e-01
  6.49912075e-02  4.77361319e-02  6.80874957e-01  6.49912075e-02  4.77361319e-02
  6.80874957e-01  6.49912075e-02  4.77361319e-02  6.80874957e-01  6.49912075e-02
  4.77361319e-02  6.80874957e-01  6.49912075e-02  4.77361319e-02  6.80874957e-01
  6.49912075e-02  4.77361319e-02  6.80874957e-01  2.74536910e-01 -7.19118106e-01
  3.35909776e+00  2.74536910e-01 -7.19118106e-01  3.35909776e+00  2.74536910e-01
 -7.19118106e-01  3.35909776e+00  2.74536910e-01 -7.19118106e-01  3.35909776e+00
  2.74536910e-01 -7.19118106e-01  3.35909776e+00  2.74536910e-01 -7.19118106e-01
  3.35909776e+00  2.74536910e-01 -7.19118106e-01  3.35909776e+00  2.74536910e-01
 -7.19118106e-01  3.35909776e+00  4.05260455e-01 -3.91134562e+00  4.25395591e+00
  4.05260455e-01 -3.91134562e+00  4.25395591e+00  4.05260455e-01 -3.91134562e+00
  4.25395591e+00  4.05260455e-01 -3.91134562e+00  4.25395591e+00  4.05260455e-01
 -3.91134562e+00  4.25395591e+00  4.05260455e-01 -3.91134562e+00  4.25395591e+00
  4.05260455e-01 -3.91134562e+00  4.25395591e+00  4.05260455e-01 -3.91134562e+00
  4.25395591e+00  4.05260455e-01 -3.91134562e+00  4.25395591e+00  4.05260455e-01
 -3.91134562e+00  4.25395591e+00  4.51779407e-01 -3.13295764e+00  7.43489788e+00
  4.51779407e-01 -3.13295764e+00  7.43489788e+00  4.51779407e-01 -3.13295764e+00
  7.43489788e+00  4.51779407e-01 -3.13295764e+00  7.43489788e+00  4.51779407e-01
 -3.13295764e+00  7.43489788e+00  4.51779407e-01 -3.13295764e+00  7.43489788e+00
  4.51779407e-01 -3.13295764e+00  7.43489788e+00  4.51779407e-01 -3.13295764e+00
  7.43489788e+00  3.89785113e-01 -5.68368399e-01  7.79392218e+00  3.89785113e-01
 -5.68368399e-01  7.79392218e+00  3.89785113e-01 -5.68368399e-01  7.79392218e+00
  3.89785113e-01 -5.68368399e-01  7.79392218e+00  3.89785113e-01 -5.68368399e-01
  7.79392218e+00  3.89785113e-01 -5.68368399e-01  7.79392218e+00  3.89785113e-01
 -5.68368399e-01  7.79392218e+00  3.89785113e-01 -5.68368399e-01  7.79392218e+00
  2.99512689e-01  8.01777416e-01  5.47503962e+00  2.99512689e-01  8.01777416e-01
  5.47503962e+00  2.99512689e-01  8.01777416e-01  5.47503962e+00  2.99512689e-01
  8.01777416e-01  5.47503962e+00  2.99512689e-01  8.01777416e-01  5.47503962e+00
  2.99512689e-01  8.01777416e-01  5.47503962e+00  2.99512689e-01  8.01777416e-01
  5.47503962e+00  2.99512689e-01  8.01777416e-01  5.47503962e+00  5.53721525e-01
 -4.60732492e+00  8.84930597e+00  5.53721525e-01 -4.60732492e+00  8.84930597e+00
  4.40687019e-01  3.16803734e-01  9.64311251e+00  4.40687019e-01  3.16803734e-01
  9.64311251e+00  3.00798488e-01  2.84893845e+00  5.36090279e+00  3.00798488e-01
  2.84893845e+00  5.36090279e+00 -1.42247607e+00  2.04191816e+00  7.52026102e-02
 -1.42247607e+00  2.04191816e+00  7.52026102e-02 -1.42247607e+00  2.04191816e+00
  7.52026102e-02 -1.42247607e+00  2.04191816e+00  7.52026102e-02 -1.42247607e+00
  2.04191816e+00  7.52026102e-02 -1.42247607e+00  2.04191816e+00  7.52026102e-02
 -1.42247607e+00  2.04191816e+00  7.52026102e-02 -1.42247607e+00  2.04191816e+00
  7.52026102e-02 -1.73246018e+00  3.33815418e+00 -2.46628028e+00 -1.73246018e+00
  3.33815418e+00 -2.46628028e+00 -1.73246018e+00  3.33815418e+00 -2.46628028e+00
 -1.73246018e+00  3.33815418e+00 -2.46628028e+00 -1.73246018e+00  3.33815418e+00
 -2.46628028e+00 -1.73246018e+00  3.33815418e+00 -2.46628028e+00 -1.73246018e+00
  3.33815418e+00 -2.46628028e+00 -1.73246018e+00  3.33815418e+00 -2.46628028e+00
 -2.55103085e+00  2.84568608e+00  1.59167126e+00 -2.55103085e+00  2.84568608e+00
  1.59167126e+00  7.29869680e-01  4.67283047e+00 -3.31241567e+00  7.29869680e-01
  4.67283047e+00 -3.31241567e+00  7.29869680e-01  4.67283047e+00 -3.31241567e+00