Generated by Psi4
     FORCE                           RHF                       TESTBAS
Number of atoms                            I               40
Charge                                     I                0
Multiplicity                               I                1
Number of electrons                        I              156
Number of alpha electrons                  I               78
Number of beta electrons                   I               78
Number of basis functions                  I              411
Number of independent functions            I              411
Atomic numbers                             I   N=          40
           6           6           6           6          16           1
           1           1           6           6          16           6
           6           6           1           1           1           6
           6           1           6           1           1           1
           7           1           6           6           1           1
           1           1           1           6           6           1
           1           1           1           1
Nuclear charges                            R   N=          40
  6.00000000e+00  6.00000000e+00  6.00000000e+00  6.00000000e+00  1.60000000e+01
  1.00000000e+00  1.00000000e+00  1.00000000e+00  6.00000000e+00  6.00000000e+00
  1.60000000e+01  6.00000000e+00  6.00000000e+00  6.00000000e+00  1.00000000e+00
  1.00000000e+00  1.00000000e+00  6.00000000e+00  6.00000000e+00  1.00000000e+00
  6.00000000e+00  1.00000000e+00  1.00000000e+00  1.00000000e+00  7.00000000e+00
  1.00000000e+00  6.00000000e+00  6.00000000e+00  1.00000000e+00  1.00000000e+00
  1.00000000e+00  1.00000000e+00  1.00000000e+00  6.00000000e+00  6.00000000e+00
  1.00000000e+00  1.00000000e+00  1.00000000e+00  1.00000000e+00  1.00000000e+00
Current cartesian coordinates              R   N=         120
  3.07904832e+00 -3.45189744e+00 -2.85232932e+00  1.02315730e+00 -2.34382417e+00
 -1.70234483e+00  2.43262801e+00 -5.09632101e+00 -4.88803089e+00 -1.24088612e-01
 -5.26282082e+00 -5.26291271e+00 -1.77446793e+00 -3.40815964e+00 -3.12697756e+00
  5.00372117e+00 -3.08556480e+00 -2.24718538e+00  3.80992595e+00 -6.11272967e+00
 -6.01673168e+00 -1.13567633e+00 -6.37390907e+00 -6.65093975e+00  1.03400041e+00
 -5.95628315e-01  4.88732362e-01  2.53101853e+00 -1.39427980e+00  2.70775481e+00
  2.61788961e+00 -4.55720173e+00  3.70810220e+00  4.50169342e+00 -3.80917262e+00
  6.28026897e+00  5.05026514e+00 -1.27895586e+00  6.36091322e+00  3.93717745e+00
  8.96846353e-02  4.32415298e+00  5.11830468e+00 -5.28036615e+00  7.56086697e+00
  6.23360168e+00 -4.23089674e-01  7.80054157e+00  4.20216053e+00  2.10057323e+00
  4.02511352e+00 -1.86559910e-01  1.65436798e+00  5.57042279e-01 -1.58581343e+00
  2.99114472e+00 -1.56064500e+00 -1.51262473e-01  2.66980340e+00  2.34273925e+00
  2.55259795e-01  3.93802282e+00 -3.63236439e+00  1.70445013e+00  5.19468308e+00
 -2.85443308e+00 -7.66007644e-01  4.96197163e+00 -5.11681773e+00  1.21995202e+00
  2.33250020e+00 -4.51123584e+00 -3.25421880e+00  4.95753116e+00 -4.77855705e-01
 -2.85018621e+00  1.63547148e+00 -2.47040705e+00 -5.47347861e+00  5.49027465e+00
 -2.05519295e+00 -7.54819087e+00  3.48450611e+00 -1.82989161e+00 -4.94757315e+00
  5.74367752e+00 -4.06435402e+00 -6.25685629e+00  7.30410233e+00 -1.44289785e+00
 -6.91164081e+00  1.61925643e+00 -2.46500658e+00 -9.17991109e+00  4.01300748e+00
 -2.99537098e+00 -8.16843418e+00  3.30732194e+00  1.37109205e-01 -1.93971378e+00
  7.25558599e+00  3.54642722e-01 -3.28295675e+00  8.58373139e+00  2.54822652e+00
 -1.66450717e+00  8.60345256e+00 -1.22133387e+00 -4.21946871e-02  6.72160972e+00
  9.87058659e-01 -5.19001329e+00  9.20649336e+00  2.03434429e+00 -2.21578543e+00
  1.02641027e+01  3.12942436e+00 -3.44968051e+00  7.31013573e+00  4.17215288e+00
Integer atomic weights                     I   N=          40
          12          12          12          12          31           1
           1           1          12          12          31          12
          12          12           1           1           1          12
          12           1          12           1           1           1
          14           1          12          12           1           1
           1           1           1          12          12           1
           1           1           1           1
Real atomic weights                        R   N=          40
  1.20000000e+01  1.20000000e+01  1.20000000e+01  1.20000000e+01  3.19720712e+01
  1.00782503e+00  1.00782503e+00  1.00782503e+00  1.20000000e+01  1.20000000e+01
  3.19720712e+01  1.20000000e+01  1.20000000e+01  1.20000000e+01  1.00782503e+00
  1.00782503e+00  1.00782503e+00  1.20000000e+01  1.20000000e+01  1.00782503e+00
  1.20000000e+01  1.00782503e+00  1.00782503e+00  1.00782503e+00  1.40030740e+01
  1.00782503e+00  1.20000000e+01  1.20000000e+01  1.00782503e+00  1.00782503e+00
  1.00782503e+00  1.00782503e+00  1.00782503e+00  1.20000000e+01  1.20000000e+01
  1.00782503e+00  1.00782503e+00  1.00782503e+00  1.00782503e+00  1.00782503e+00
Number of primitive shells                 I              431
Number of contracted shells                I              198
Pure/Cartesian d shells                    I                1
Pure/Cartesian f shells                    I                1
Highest angular momentum                   I                2
Largest degree of contraction              I                6
Shell types                                I   N=         198
           0           0           1           0           1           2
           0           1           0           0           1           0
           1           2           0           1           0           0
           1           0           1           2           0           1
           0           0           1           0           1           2
           0           1           0           0           1           0
           1           0           1           2           0           1
           0           0           0           0           0           0
           0           0           1           0           1           2
           0           1           0           0           1           0
           1           2           0           1           0           0
           1           0           1           0           1           2
           0           1           0           0           1           0
           1           2           0           1           0           0
           1           0           1           2           0           1
           0           0           1           0           1           2
           0           1           0           0           0           0
           0           0           0           0           1           0
           1           2           0           1           0           0
           1           0           1           2           0           1
           0           0           0           0           1           0
           1           2           0           1           0           0
           0           0           0           0           0           0
           1           0           1           2           0           1
           0           0           0           0           1           0
           1           2           0           1           0           0
           1           0           1           2           0           1
           0           0           0           0           0           0
           0           0           0           0           0           0
           1           0           1           2           0           1
           0           0           1           0           1           2
           0           1           0           0           0           0
           0           0           0           0           0           0
Number of primitives per shell             I   N=         198
           6           3           3           1           1           1
           1           1           6           3           3           1
           1           1           1           1           6           3
           3           1           1           1           1           1
           6           3           3           1           1           1
           1           1           6           6           6           3
           3           1           1           1           1           1
           3           1           3           1           3           1
           6           3           3           1           1           1
           1           1           6           3           3           1
           1           1           1           1           6           6
           6           3           3           1           1           1
           1           1           6           3           3           1
           1           1           1           1           6           3
           3           1           1           1           1           1
           6           3           3           1           1           1
           1           1           3           1           3           1
           3           1           6           3           3           1
           1           1           1           1           6           3
           3           1           1           1           1           1
           3           1           6           3           3           1
           1           1           1           1           3           1
           3           1           3           1           6           3
           3           1           1           1           1           1
           3           1           6           3           3           1
           1           1           1           1           6           3
           3           1           1           1           1           1
           3           1           3           1           3           1
           3           1           3           1           6           3
           3           1           1           1           1           1
           6           3           3           1           1           1
           1           1           3           1           3           1
           3           1           3           1           3           1
Shell to atom map                          I   N=         198
           1           1           1           1           1           1
           1           1           2           2           2           2
           2           2           2           2           3           3
           3           3           3           3           3           3
           4           4           4           4           4           4
           4           4           5           5           5           5
           5           5           5           5           5           5
           6           6           7           7           8           8
           9           9           9           9           9           9
           9           9          10          10          10          10
          10          10          10          10          11          11
          11          11          11          11          11          11
          11          11          12          12          12          12
          12          12          12          12          13          13
          13          13          13          13          13          13
          14          14          14          14          14          14
          14          14          15          15          16          16
          17          17          18          18          18          18
          18          18          18          18          19          19
          19          19          19          19          19          19
          20          20          21          21          21          21
          21          21          21          21          22          22
          23          23          24          24          25          25
          25          25          25          25          25          25
          26          26          27          27          27          27
          27          27          27          27          28          28
          28          28          28          28          28          28
          29          29          30          30          31          31
          32          32          33          33          34          34
          34          34          34          34          34          34
          35          35          35          35          35          35
          35          35          36          36          37          37
          38          38          39          39          40          40
Primitive exponents                        R   N=         431
  3.04752490e+03  4.57369510e+02  1.03948690e+02  2.92101550e+01  9.28666300e+00
  3.16392700e+00  7.86827240e+00  1.88128850e+00  5.44249300e-01  7.86827240e+00
  1.88128850e+00  5.44249300e-01  1.68714400e-01  1.68714400e-01  8.00000000e-01
  4.38000000e-02  4.38000000e-02  3.04752490e+03  4.57369510e+02  1.03948690e+02
  2.92101550e+01  9.28666300e+00  3.16392700e+00  7.86827240e+00  1.88128850e+00
  5.44249300e-01  7.86827240e+00  1.88128850e+00  5.44249300e-01  1.68714400e-01
  1.68714400e-01  8.00000000e-01  4.38000000e-02  4.38000000e-02  3.04752490e+03
  4.57369510e+02  1.03948690e+02  2.92101550e+01  9.28666300e+00  3.16392700e+00
  7.86827240e+00  1.88128850e+00  5.44249300e-01  7.86827240e+00  1.88128850e+00
  5.44249300e-01  1.68714400e-01  1.68714400e-01  8.00000000e-01  4.38000000e-02
  4.38000000e-02  3.04752490e+03  4.57369510e+02  1.03948690e+02  2.92101550e+01
  9.28666300e+00  3.16392700e+00  7.86827240e+00  1.88128850e+00  5.44249300e-01
  7.86827240e+00  1.88128850e+00  5.44249300e-01  1.68714400e-01  1.68714400e-01
  8.00000000e-01  4.38000000e-02  4.38000000e-02  2.19171000e+04  3.30149000e+03
  7.54146000e+02  2.12711000e+02  6.79896000e+01  2.30515000e+01  4.23735000e+02
  1.00710000e+02  3.21599000e+01  1.18079000e+01  4.63110000e+00  1.87025000e+00
  4.23735000e+02  1.00710000e+02  3.21599000e+01  1.18079000e+01  4.63110000e+00
  1.87025000e+00  2.61584000e+00  9.22167000e-01  3.41287000e-01  2.61584000e+00
  9.22167000e-01  3.41287000e-01  1.17167000e-01  1.17167000e-01  6.50000000e-01
  4.05000000e-02  4.05000000e-02  1.87311370e+01  2.82539370e+00  6.40121700e-01
  1.61277800e-01  1.87311370e+01  2.82539370e+00  6.40121700e-01  1.61277800e-01
  1.87311370e+01  2.82539370e+00  6.40121700e-01  1.61277800e-01  3.04752490e+03
  4.57369510e+02  1.03948690e+02  2.92101550e+01  9.28666300e+00  3.16392700e+00
  7.86827240e+00  1.88128850e+00  5.44249300e-01  7.86827240e+00  1.88128850e+00
  5.44249300e-01  1.68714400e-01  1.68714400e-01  8.00000000e-01  4.38000000e-02
  4.38000000e-02  3.04752490e+03  4.57369510e+02  1.03948690e+02  2.92101550e+01
  9.28666300e+00  3.16392700e+00  7.86827240e+00  1.88128850e+00  5.44249300e-01
  7.86827240e+00  1.88128850e+00  5.44249300e-01  1.68714400e-01  1.68714400e-01
  8.00000000e-01  4.38000000e-02  4.38000000e-02  2.19171000e+04  3.30149000e+03
  7.54146000e+02  2.12711000e+02  6.79896000e+01  2.30515000e+01  4.23735000e+02
  1.00710000e+02  3.21599000e+01  1.18079000e+01  4.63110000e+00  1.87025000e+00
  4.23735000e+02  1.00710000e+02  3.21599000e+01  1.18079000e+01  4.63110000e+00
  1.87025000e+00  2.61584000e+00  9.22167000e-01  3.41287000e-01  2.61584000e+00
  9.22167000e-01  3.41287000e-01  1.17167000e-01  1.17167000e-01  6.50000000e-01
  4.05000000e-02  4.05000000e-02  3.04752490e+03  4.57369510e+02  1.03948690e+02
  2.92101550e+01  9.28666300e+00  3.16392700e+00  7.86827240e+00  1.88128850e+00
  5.44249300e-01  7.86827240e+00  1.88128850e+00  5.44249300e-01  1.68714400e-01
  1.68714400e-01  8.00000000e-01  4.38000000e-02  4.38000000e-02  3.04752490e+03
  4.57369510e+02  1.03948690e+02  2.92101550e+01  9.28666300e+00  3.16392700e+00
  7.86827240e+00  1.88128850e+00  5.44249300e-01  7.86827240e+00  1.88128850e+00
  5.44249300e-01  1.68714400e-01  1.68714400e-01  8.00000000e-01  4.38000000e-02
  4.38000000e-02  3.04752490e+03  4.57369510e+02  1.03948690e+02  2.92101550e+01
  9.28666300e+00  3.16392700e+00  7.86827240e+00  1.88128850e+00  5.44249300e-01
  7.86827240e+00  1.88128850e+00  5.44249300e-01  1.68714400e-01  1.68714400e-01
  8.00000000e-01  4.38000000e-02  4.38000000e-02  1.87311370e+01  2.82539370e+00
  6.40121700e-01  1.61277800e-01  1.87311370e+01  2.82539370e+00  6.40121700e-01
  1.61277800e-01  1.87311370e+01  2.82539370e+00  6.40121700e-01  1.61277800e-01
  3.04752490e+03  4.57369510e+02  1.03948690e+02  2.92101550e+01  9.28666300e+00
  3.16392700e+00  7.86827240e+00  1.88128850e+00  5.44249300e-01  7.86827240e+00
  1.88128850e+00  5.44249300e-01  1.68714400e-01  1.68714400e-01  8.00000000e-01
  4.38000000e-02  4.38000000e-02  3.04752490e+03  4.57369510e+02  1.03948690e+02
  2.92101550e+01  9.28666300e+00  3.16392700e+00  7.86827240e+00  1.88128850e+00
  5.44249300e-01  7.86827240e+00  1.88128850e+00  5.44249300e-01  1.68714400e-01
  1.68714400e-01  8.00000000e-01  4.38000000e-02  4.38000000e-02  1.87311370e+01
  2.82539370e+00  6.40121700e-01  1.61277800e-01  3.04752490e+03  4.57369510e+02
  1.03948690e+02  2.92101550e+01  9.28666300e+00  3.16392700e+00  7.86827240e+00
  1.88128850e+00  5.44249300e-01  7.86827240e+00  1.88128850e+00  5.44249300e-01
  1.68714400e-01  1.68714400e-01  8.00000000e-01  4.38000000e-02  4.38000000e-02
  1.87311370e+01  2.82539370e+00  6.40121700e-01  1.61277800e-01  1.87311370e+01
  2.82539370e+00  6.40121700e-01  1.61277800e-01  1.87311370e+01  2.82539370e+00
  6.40121700e-01  1.61277800e-01  4.17351100e+03  6.27457900e+02  1.42902100e+02
  4.02343300e+01  1.28202100e+01  4.39043700e+00  1.16263580e+01  2.71628000e+00
  7.72218000e-01  1.16263580e+01  2.71628000e+00  7.72218000e-01  2.12031300e-01
  2.12031300e-01  8.00000000e-01  6.39000000e-02  6.39000000e-02  1.87311370e+01
  2.82539370e+00  6.40121700e-01  1.61277800e-01  3.04752490e+03  4.57369510e+02
  1.03948690e+02  2.92101550e+01  9.28666300e+00  3.16392700e+00  7.86827240e+00
  1.88128850e+00  5.44249300e-01  7.86827240e+00  1.88128850e+00  5.44249300e-01
  1.68714400e-01  1.68714400e-01  8.00000000e-01  4.38000000e-02  4.38000000e-02
  3.04752490e+03  4.57369510e+02  1.03948690e+02  2.92101550e+01  9.28666300e+00
  3.16392700e+00  7.86827240e+00  1.88128850e+00  5.44249300e-01  7.86827240e+00
  1.88128850e+00  5.44249300e-01  1.68714400e-01  1.68714400e-01  8.00000000e-01
  4.38000000e-02  4.38000000e-02  1.87311370e+01  2.82539370e+00  6.40121700e-01
  1.61277800e-01  1.87311370e+01  2.82539370e+00  6.40121700e-01  1.61277800e-01
  1.87311370e+01  2.82539370e+00  6.40121700e-01  1.61277800e-01  1.87311370e+01
  2.82539370e+00  6.40121700e-01  1.61277800e-01  1.87311370e+01  2.82539370e+00
  6.40121700e-01  1.61277800e-01  3.04752490e+03  4.57369510e+02  1.03948690e+02
  2.92101550e+01  9.28666300e+00  3.16392700e+00  7.86827240e+00  1.88128850e+00
  5.44249300e-01  7.86827240e+00  1.88128850e+00  5.44249300e-01  1.68714400e-01
  1.68714400e-01  8.00000000e-01  4.38000000e-02  4.38000000e-02  3.04752490e+03
  4.57369510e+02  1.03948690e+02  2.92101550e+01  9.28666300e+00  3.16392700e+00
  7.86827240e+00  1.88128850e+00  5.44249300e-01  7.86827240e+00  1.88128850e+00
  5.44249300e-01  1.68714400e-01  1.68714400e-01  8.00000000e-01  4.38000000e-02
  4.38000000e-02  1.87311370e+01  2.82539370e+00  6.40121700e-01  1.61277800e-01
  1.87311370e+01  2.82539370e+00  6.40121700e-01  1.61277800e-01  1.87311370e+01
  2.82539370e+00  6.40121700e-01  1.61277800e-01  1.87311370e+01  2.82539370e+00
  6.40121700e-01  1.61277800e-01  1.87311370e+01  2.82539370e+00  6.40121700e-01
  1.61277800e-01
Contraction coefficients                   R   N=         431
  1.83470016e-03  1.40373012e-02  6.88426061e-02  2.32184421e-01  4.67941342e-01
  3.62312032e-01 -1.19332409e-01 -1.60854212e-01  1.14345648e+00  6.89990956e-02
  3.16423980e-01  7.44308252e-01  1.00000000e+00  1.00000000e+00  1.00000000e+00
  1.00000000e+00  1.00000000e+00  1.83470016e-03  1.40373012e-02  6.88426061e-02
  2.32184421e-01  4.67941342e-01  3.62312032e-01 -1.19332409e-01 -1.60854212e-01
  1.14345648e+00  6.89990956e-02  3.16423980e-01  7.44308252e-01  1.00000000e+00
  1.00000000e+00  1.00000000e+00  1.00000000e+00  1.00000000e+00  1.83470016e-03
  1.40373012e-02  6.88426061e-02  2.32184421e-01  4.67941342e-01  3.62312032e-01
 -1.19332409e-01 -1.60854212e-01  1.14345648e+00  6.89990956e-02  3.16423980e-01
  7.44308252e-01  1.00000000e+00  1.00000000e+00  1.00000000e+00  1.00000000e+00
  1.00000000e+00  1.83470016e-03  1.40373012e-02  6.88426061e-02  2.32184421e-01
  4.67941342e-01  3.62312032e-01 -1.19332409e-01 -1.60854212e-01  1.14345648e+00
  6.89990956e-02  3.16423980e-01  7.44308252e-01  1.00000000e+00  1.00000000e+00
  1.00000000e+00  1.00000000e+00  1.00000000e+00  1.86900121e-03  1.42300092e-02
  6.96960451e-02  2.38487154e-01  4.83307312e-01  3.38074219e-01 -2.37670050e-03
 -3.16930066e-02 -1.13317024e-01  5.60900117e-02  5.92255123e-01  4.55006095e-01
  4.06100032e-03  3.06810024e-02  1.30452010e-01  3.27205026e-01  4.52851036e-01
  2.56042020e-01 -2.50373114e-01  6.69567631e-02  1.05450627e+00 -1.45109929e-02
  3.10262847e-01  7.54482628e-01  1.00000000e+00  1.00000000e+00  1.00000000e+00
  1.00000000e+00  1.00000000e+00  3.34945995e-02  2.34726947e-01  8.13757318e-01
  1.00000000e+00  3.34945995e-02  2.34726947e-01  8.13757318e-01  1.00000000e+00
  3.34945995e-02  2.34726947e-01  8.13757318e-01  1.00000000e+00  1.83470016e-03
  1.40373012e-02  6.88426061e-02  2.32184421e-01  4.67941342e-01  3.62312032e-01
 -1.19332409e-01 -1.60854212e-01  1.14345648e+00  6.89990956e-02  3.16423980e-01
  7.44308252e-01  1.00000000e+00  1.00000000e+00  1.00000000e+00  1.00000000e+00
  1.00000000e+00  1.83470016e-03  1.40373012e-02  6.88426061e-02  2.32184421e-01
  4.67941342e-01  3.62312032e-01 -1.19332409e-01 -1.60854212e-01  1.14345648e+00
  6.89990956e-02  3.16423980e-01  7.44308252e-01  1.00000000e+00  1.00000000e+00
  1.00000000e+00  1.00000000e+00  1.00000000e+00  1.86900121e-03  1.42300092e-02
  6.96960451e-02  2.38487154e-01  4.83307312e-01  3.38074219e-01 -2.37670050e-03
 -3.16930066e-02 -1.13317024e-01  5.60900117e-02  5.92255123e-01  4.55006095e-01
  4.06100032e-03  3.06810024e-02  1.30452010e-01  3.27205026e-01  4.52851036e-01
  2.56042020e-01 -2.50373114e-01  6.69567631e-02  1.05450627e+00 -1.45109929e-02
  3.10262847e-01  7.54482628e-01  1.00000000e+00  1.00000000e+00  1.00000000e+00
  1.00000000e+00  1.00000000e+00  1.83470016e-03  1.40373012e-02  6.88426061e-02
  2.32184421e-01  4.67941342e-01  3.62312032e-01 -1.19332409e-01 -1.60854212e-01
  1.14345648e+00  6.89990956e-02  3.16423980e-01  7.44308252e-01  1.00000000e+00
  1.00000000e+00  1.00000000e+00  1.00000000e+00  1.00000000e+00  1.83470016e-03
  1.40373012e-02  6.88426061e-02  2.32184421e-01  4.67941342e-01  3.62312032e-01
 -1.19332409e-01 -1.60854212e-01  1.14345648e+00  6.89990956e-02  3.16423980e-01
  7.44308252e-01  1.00000000e+00  1.00000000e+00  1.00000000e+00  1.00000000e+00
  1.00000000e+00  1.83470016e-03  1.40373012e-02  6.88426061e-02  2.32184421e-01
  4.67941342e-01  3.62312032e-01 -1.19332409e-01 -1.60854212e-01  1.14345648e+00
  6.89990956e-02  3.16423980e-01  7.44308252e-01  1.00000000e+00  1.00000000e+00
  1.00000000e+00  1.00000000e+00  1.00000000e+00  3.34945995e-02  2.34726947e-01
  8.13757318e-01  1.00000000e+00  3.34945995e-02  2.34726947e-01  8.13757318e-01
  1.00000000e+00  3.34945995e-02  2.34726947e-01  8.13757318e-01  1.00000000e+00
  1.83470016e-03  1.40373012e-02  6.88426061e-02  2.32184421e-01  4.67941342e-01
  3.62312032e-01 -1.19332409e-01 -1.60854212e-01  1.14345648e+00  6.89990956e-02
  3.16423980e-01  7.44308252e-01  1.00000000e+00  1.00000000e+00  1.00000000e+00
  1.00000000e+00  1.00000000e+00  1.83470016e-03  1.40373012e-02  6.88426061e-02
  2.32184421e-01  4.67941342e-01  3.62312032e-01 -1.19332409e-01 -1.60854212e-01
  1.14345648e+00  6.89990956e-02  3.16423980e-01  7.44308252e-01  1.00000000e+00
  1.00000000e+00  1.00000000e+00  1.00000000e+00  1.00000000e+00  3.34945995e-02
  2.34726947e-01  8.13757318e-01  1.00000000e+00  1.83470016e-03  1.40373012e-02
  6.88426061e-02  2.32184421e-01  4.67941342e-01  3.62312032e-01 -1.19332409e-01
 -1.60854212e-01  1.14345648e+00  6.89990956e-02  3.16423980e-01  7.44308252e-01
  1.00000000e+00  1.00000000e+00  1.00000000e+00  1.00000000e+00  1.00000000e+00
  3.34945995e-02  2.34726947e-01  8.13757318e-01  1.00000000e+00  3.34945995e-02
  2.34726947e-01  8.13757318e-01  1.00000000e+00  3.34945995e-02  2.34726947e-01
  8.13757318e-01  1.00000000e+00  1.83479944e-03  1.39949958e-02  6.85869792e-02
  2.32240930e-01  4.69069858e-01  3.60454891e-01 -1.14961023e-01 -1.69118034e-01
  1.14585223e+00  6.75800232e-02  3.23907111e-01  7.40895255e-01  1.00000000e+00
  1.00000000e+00  1.00000000e+00  1.00000000e+00  1.00000000e+00  3.34945995e-02
  2.34726947e-01  8.13757318e-01  1.00000000e+00  1.83470016e-03  1.40373012e-02
  6.88426061e-02  2.32184421e-01  4.67941342e-01  3.62312032e-01 -1.19332409e-01
 -1.60854212e-01  1.14345648e+00  6.89990956e-02  3.16423980e-01  7.44308252e-01
  1.00000000e+00  1.00000000e+00  1.00000000e+00  1.00000000e+00  1.00000000e+00
  1.83470016e-03  1.40373012e-02  6.88426061e-02  2.32184421e-01  4.67941342e-01
  3.62312032e-01 -1.19332409e-01 -1.60854212e-01  1.14345648e+00  6.89990956e-02
  3.16423980e-01  7.44308252e-01  1.00000000e+00  1.00000000e+00  1.00000000e+00
  1.00000000e+00  1.00000000e+00  3.34945995e-02  2.34726947e-01  8.13757318e-01
  1.00000000e+00  3.34945995e-02  2.34726947e-01  8.13757318e-01  1.00000000e+00
  3.34945995e-02  2.34726947e-01  8.13757318e-01  1.00000000e+00  3.34945995e-02
  2.34726947e-01  8.13757318e-01  1.00000000e+00  3.34945995e-02  2.34726947e-01
  8.13757318e-01  1.00000000e+00  1.83470016e-03  1.40373012e-02  6.88426061e-02
  2.32184421e-01  4.67941342e-01  3.62312032e-01 -1.19332409e-01 -1.60854212e-01
  1.14345648e+00  6.89990956e-02  3.16423980e-01  7.44308252e-01  1.00000000e+00
  1.00000000e+00  1.00000000e+00  1.00000000e+00  1.00000000e+00  1.83470016e-03
  1.40373012e-02  6.88426061e-02  2.32184421e-01  4.67941342e-01  3.62312032e-01
 -1.19332409e-01 -1.60854212e-01  1.14345648e+00  6.89990956e-02  3.16423980e-01
  7.44308252e-01  1.00000000e+00  1.00000000e+00  1.00000000e+00  1.00000000e+00
  1.00000000e+00  3.34945995e-02  2.34726947e-01  8.13757318e-01  1.00000000e+00
  3.34945995e-02  2.34726947e-01  8.13757318e-01  1.00000000e+00  3.34945995e-02
  2.34726947e-01  8.13757318e-01  1.00000000e+00  3.34945995e-02  2.34726947e-01
  8.13757318e-01  1.00000000e+00  3.34945995e-02  2.34726947e-01  8.13757318e-01
  1.00000000e+00
Coordinates of each shell                  R   N=         594
  3.07904832e+00 -3.45189744e+00 -2.85232932e+00  3.07904832e+00 -3.45189744e+00
 -2.85232932e+00  3.07904832e+00 -3.45189744e+00 -2.85232932e+00  3.07904832e+00
 -3.45189744e+00 -2.85232932e+00  3.07904832e+00 -3.45189744e+00 -2.85232932e+00
  3.07904832e+00 -3.45189744e+00 -2.85232932e+00  3.07904832e+00 -3.45189744e+00
 -2.85232932e+00  3.07904832e+00 -3.45189744e+00 -2.85232932e+00  1.02315730e+00
 -2.34382417e+00 -1.70234483e+00  1.02315730e+00 -2.34382417e+00 -1.70234483e+00
  1.02315730e+00 -2.34382417e+00 -1.70234483e+00  1.02315730e+00 -2.34382417e+00
 -1.70234483e+00  1.02315730e+00 -2.34382417e+00 -1.70234483e+00  1.02315730e+00
 -2.34382417e+00 -1.70234483e+00  1.02315730e+00 -2.34382417e+00 -1.70234483e+00
  1.02315730e+00 -2.34382417e+00 -1.70234483e+00  2.43262801e+00 -5.09632101e+00
 -4.88803089e+00  2.43262801e+00 -5.09632101e+00 -4.88803089e+00  2.43262801e+00
 -5.09632101e+00 -4.88803089e+00  2.43262801e+00 -5.09632101e+00 -4.88803089e+00
  2.43262801e+00 -5.09632101e+00 -4.88803089e+00  2.43262801e+00 -5.09632101e+00
 -4.88803089e+00  2.43262801e+00 -5.09632101e+00 -4.88803089e+00  2.43262801e+00
 -5.09632101e+00 -4.88803089e+00 -1.24088612e-01 -5.26282082e+00 -5.26291271e+00
 -1.24088612e-01 -5.26282082e+00 -5.26291271e+00 -1.24088612e-01 -5.26282082e+00
 -5.26291271e+00 -1.24088612e-01 -5.26282082e+00 -5.26291271e+00 -1.24088612e-01
 -5.26282082e+00 -5.26291271e+00 -1.24088612e-01 -5.26282082e+00 -5.26291271e+00
 -1.24088612e-01 -5.26282082e+00 -5.26291271e+00 -1.24088612e-01 -5.26282082e+00
 -5.26291271e+00 -1.77446793e+00 -3.40815964e+00 -3.12697756e+00 -1.77446793e+00
 -3.40815964e+00 -3.12697756e+00 -1.77446793e+00 -3.40815964e+00 -3.12697756e+00
 -1.77446793e+00 -3.40815964e+00 -3.12697756e+00 -1.77446793e+00 -3.40815964e+00
 -3.12697756e+00 -1.77446793e+00 -3.40815964e+00 -3.12697756e+00 -1.77446793e+00
 -3.40815964e+00 -3.12697756e+00 -1.77446793e+00 -3.40815964e+00 -3.12697756e+00
 -1.77446793e+00 -3.40815964e+00 -3.12697756e+00 -1.77446793e+00 -3.40815964e+00
 -3.12697756e+00  5.00372117e+00 -3.08556480e+00 -2.24718538e+00  5.00372117e+00
 -3.08556480e+00 -2.24718538e+00  3.80992595e+00 -6.11272967e+00 -6.01673168e+00
  3.80992595e+00 -6.11272967e+00 -6.01673168e+00 -1.13567633e+00 -6.37390907e+00
 -6.65093975e+00 -1.13567633e+00 -6.37390907e+00 -6.65093975e+00  1.03400041e+00
 -5.95628315e-01  4.88732362e-01  1.03400041e+00 -5.95628315e-01  4.88732362e-01
  1.03400041e+00 -5.95628315e-01  4.88732362e-01  1.03400041e+00 -5.95628315e-01
  4.88732362e-01  1.03400041e+00 -5.95628315e-01  4.88732362e-01  1.03400041e+00
 -5.95628315e-01  4.88732362e-01  1.03400041e+00 -5.95628315e-01  4.88732362e-01
  1.03400041e+00 -5.95628315e-01  4.88732362e-01  2.53101853e+00 -1.39427980e+00
  2.70775481e+00  2.53101853e+00 -1.39427980e+00  2.70775481e+00  2.53101853e+00
 -1.39427980e+00  2.70775481e+00  2.53101853e+00 -1.39427980e+00  2.70775481e+00