Generated by Psi4
     FORCE                           RHF                       TESTBAS
Number of atoms                            I               28
Charge                                     I                0
Multiplicity                               I                1
Number of electrons                        I              100
Number of alpha electrons                  I               50
Number of beta electrons                   I               50
Number of basis functions                  I              277
Number of independent functions            I              277
Atomic numbers                             I   N=          28
           6           6           6           6           6           1
           1           1           1           6           7           1
           8           8           6           1           6           1
           1           1           8           1           6           1
           1           1           1           1
Nuclear charges                            R   N=          28
  6.00000000e+00  6.00000000e+00  6.00000000e+00  6.00000000e+00  6.00000000e+00
  1.00000000e+00  1.00000000e+00  1.00000000e+00  1.00000000e+00  6.00000000e+00
  7.00000000e+00  1.00000000e+00  8.00000000e+00  8.00000000e+00  6.00000000e+00
  1.00000000e+00  6.00000000e+00  1.00000000e+00  1.00000000e+00  1.00000000e+00
  8.00000000e+00  1.00000000e+00  6.00000000e+00  1.00000000e+00  1.00000000e+00
  1.00000000e+00  1.00000000e+00  1.00000000e+00
Current cartesian coordinates              R   N=          84
  3.40588805e-01  2.04725242e+00  2.72981530e+00  5.07167809e-01  4.51827135e+00
  1.14318139e+00  1.39129998e+00  3.59602764e+00 -1.50927075e+00 -7.00500545e-01
 -8.40541175e-01 -1.80890926e+00  1.71478345e+00  6.93260701e-01 -1.17745542e+00
  8.41260702e-02  4.05943550e+00 -3.04456504e+00  3.20027705e+00  4.46168986e+00
 -2.01686146e+00 -1.28804030e+00  5.54972025e+00  1.12166660e+00  1.89804867e+00
  5.81278895e+00  1.96208532e+00 -2.85330200e-01 -3.71027412e+00 -1.55073737e+00
  2.24301166e+00  3.37275883e-01  1.56431703e+00  3.30003093e+00 -4.24598950e-02
 -2.28569745e+00  1.01349170e+00 -4.47226002e+00  4.99222900e-01 -1.13528182e+00
 -5.20641035e+00 -3.06268483e+00 -3.01958323e+00 -1.80533592e-02 -1.61905535e-01
 -1.22851507e+00 -5.39282510e-01 -3.78328805e+00 -2.24348123e+00  7.19724116e-01
  2.55793891e+00  8.20820863e-01  2.35856906e+00  4.71805911e+00 -2.15105221e+00
 -9.95642487e-01  3.71822904e+00 -3.73407314e+00  1.91370627e+00  3.36127676e+00
 -4.48065925e+00  1.90792055e+00 -1.38625146e+00 -4.34364022e+00 -1.60093636e+00
 -7.52546441e-02  4.86397539e+00  8.96350363e-01  2.28329065e+00  5.07575178e+00
  6.21516696e-01  4.32228498e+00  5.46999284e+00  2.83134242e+00  1.81542708e+00
  6.12472986e+00 -4.31481263e-01  1.32068796e+00 -3.53623071e+00  3.47323788e+00
 -1.44350944e+00  1.59910235e+00 -2.91896870e+00  1.42121569e+00
Integer atomic weights                     I   N=          28
          12          12          12          12          12           1
           1           1           1          12          14           1
          15          15          12           1          12           1
           1           1          15           1          12           1
           1           1           1           1
Real atomic weights                        R   N=          28
  1.20000000e+01  1.20000000e+01  1.20000000e+01  1.20000000e+01  1.20000000e+01
  1.00782503e+00  1.00782503e+00  1.00782503e+00  1.00782503e+00  1.20000000e+01
  1.40030740e+01  1.00782503e+00  1.59949146e+01  1.59949146e+01  1.20000000e+01
  1.00782503e+00  1.20000000e+01  1.00782503e+00  1.00782503e+00  1.00782503e+00
  1.59949146e+01  1.00782503e+00  1.20000000e+01  1.00782503e+00  1.00782503e+00
  1.00782503e+00  1.00782503e+00  1.00782503e+00
Number of primitive shells                 I              281
Number of contracted shells                I              134
Pure/Cartesian d shells                    I                1
Pure/Cartesian f shells                    I                1
Highest angular momentum                   I                2
Largest degree of contraction              I                6
Shell types                                I   N=         134
           0           0           1           0           1           2
           0           1           0           0           1           0
           1           2           0           1           0           0
           1           0           1           2           0           1
           0           0           1           0           1           2
           0           1           0           0           1           0
           1           2           0           1           0           0
           0           0           0           0           0           0
           0           0           1           0           1           2
           0           1           0           0           1           0
           1           2           0           1           0           0
           0           0           1           0           1           2
           0           1           0           0           1           0
           1           2           0           1           0           0
           1           0           1           2           0           1
           0           0           0           0           1           0
           1           2           0           1           0           0
           0           0           0           0           0           0
           1           0           1           2           0           1
           0           0           0           0           1           0
           1           2           0           1           0           0
           0           0           0           0           0           0
           0           0
Number of primitives per shell             I   N=         134
           6           3           3           1           1           1
           1           1           6           3           3           1
           1           1           1           1           6           3
           3           1           1           1           1           1
           6           3           3           1           1           1
           1           1           6           3           3           1
           1           1           1           1           3           1
           3           1           3           1           3           1
           6           3           3           1           1           1
           1           1           6           3           3           1
           1           1           1           1           3           1
           6           3           3           1           1           1
           1           1           6           3           3           1
           1           1           1           1           6           3
           3           1           1           1           1           1
           3           1           6           3           3           1
           1           1           1           1           3           1
           3           1           3           1           6           3
           3           1           1           1           1           1
           3           1           6           3           3           1
           1           1           1           1           3           1
           3           1           3           1           3           1
           3           1
Shell to atom map                          I   N=         134
           1           1           1           1           1           1
           1           1           2           2           2           2
           2           2           2           2           3           3
           3           3           3           3           3           3
           4           4           4           4           4           4
           4           4           5           5           5           5
           5           5           5           5           6           6
           7           7           8           8           9           9
          10          10          10          10          10          10
          10          10          11          11          11          11
          11          11          11          11          12          12
          13          13          13          13          13          13
          13          13          14          14          14          14
          14          14          14          14          15          15
          15          15          15          15          15          15
          16          16          17          17          17          17
          17          17          17          17          18          18
          19          19          20          20          21          21
          21          21          21          21          21          21
          22          22          23          23          23          23
          23          23          23          23          24          24
          25          25          26          26          27          27
          28          28
Primitive exponents                        R   N=         281
  3.04752490e+03  4.57369510e+02  1.03948690e+02  2.92101550e+01  9.28666300e+00
  3.16392700e+00  7.86827240e+00  1.88128850e+00  5.44249300e-01  7.86827240e+00
  1.88128850e+00  5.44249300e-01  1.68714400e-01  1.68714400e-01  8.00000000e-01
  4.38000000e-02  4.38000000e-02  3.04752490e+03  4.57369510e+02  1.03948690e+02
  2.92101550e+01  9.28666300e+00  3.16392700e+00  7.86827240e+00  1.88128850e+00
  5.44249300e-01  7.86827240e+00  1.88128850e+00  5.44249300e-01  1.68714400e-01
  1.68714400e-01  8.00000000e-01  4.38000000e-02  4.38000000e-02  3.04752490e+03
  4.57369510e+02  1.03948690e+02  2.92101550e+01  9.28666300e+00  3.16392700e+00
  7.86827240e+00  1.88128850e+00  5.44249300e-01  7.86827240e+00  1.88128850e+00
  5.44249300e-01  1.68714400e-01  1.68714400e-01  8.00000000e-01  4.38000000e-02
  4.38000000e-02  3.04752490e+03  4.57369510e+02  1.03948690e+02  2.92101550e+01
  9.28666300e+00  3.16392700e+00  7.86827240e+00  1.88128850e+00  5.44249300e-01
  7.86827240e+00  1.88128850e+00  5.44249300e-01  1.68714400e-01  1.68714400e-01
  8.00000000e-01  4.38000000e-02  4.38000000e-02  3.04752490e+03  4.57369510e+02
  1.03948690e+02  2.92101550e+01  9.28666300e+00  3.16392700e+00  7.86827240e+00
  1.88128850e+00  5.44249300e-01  7.86827240e+00  1.88128850e+00  5.44249300e-01
  1.68714400e-01  1.68714400e-01  8.00000000e-01  4.38000000e-02  4.38000000e-02
  1.87311370e+01  2.82539370e+00  6.40121700e-01  1.61277800e-01  1.87311370e+01
  2.82539370e+00  6.40121700e-01  1.61277800e-01  1.87311370e+01  2.82539370e+00
  6.40121700e-01  1.61277800e-01  1.87311370e+01  2.82539370e+00  6.40121700e-01
  1.61277800e-01  3.04752490e+03  4.57369510e+02  1.03948690e+02  2.92101550e+01
  9.28666300e+00  3.16392700e+00  7.86827240e+00  1.88128850e+00  5.44249300e-01
  7.86827240e+00  1.88128850e+00  5.44249300e-01  1.68714400e-01  1.68714400e-01
  8.00000000e-01  4.38000000e-02  4.38000000e-02  4.17351100e+03  6.27457900e+02
  1.42902100e+02  4.02343300e+01  1.28202100e+01  4.39043700e+00  1.16263580e+01
  2.71628000e+00  7.72218000e-01  1.16263580e+01  2.71628000e+00  7.72218000e-01
  2.12031300e-01  2.12031300e-01  8.00000000e-01  6.39000000e-02  6.39000000e-02
  1.87311370e+01  2.82539370e+00  6.40121700e-01  1.61277800e-01  5.48467170e+03
  8.25234950e+02  1.88046960e+02  5.29645000e+01  1.68975700e+01  5.79963530e+00
  1.55396160e+01  3.59993360e+00  1.01376180e+00  1.55396160e+01  3.59993360e+00
  1.01376180e+00  2.70005800e-01  2.70005800e-01  8.00000000e-01  8.45000000e-02
  8.45000000e-02  5.48467170e+03  8.25234950e+02  1.88046960e+02  5.29645000e+01
  1.68975700e+01  5.79963530e+00  1.55396160e+01  3.59993360e+00  1.01376180e+00
  1.55396160e+01  3.59993360e+00  1.01376180e+00  2.70005800e-01  2.70005800e-01
  8.00000000e-01  8.45000000e-02  8.45000000e-02  3.04752490e+03  4.57369510e+02
  1.03948690e+02  2.92101550e+01  9.28666300e+00  3.16392700e+00  7.86827240e+00
  1.88128850e+00  5.44249300e-01  7.86827240e+00  1.88128850e+00  5.44249300e-01
  1.68714400e-01  1.68714400e-01  8.00000000e-01  4.38000000e-02  4.38000000e-02
  1.87311370e+01  2.82539370e+00  6.40121700e-01  1.61277800e-01  3.04752490e+03
  4.57369510e+02  1.03948690e+02  2.92101550e+01  9.28666300e+00  3.16392700e+00
  7.86827240e+00  1.88128850e+00  5.44249300e-01  7.86827240e+00  1.88128850e+00
  5.44249300e-01  1.68714400e-01  1.68714400e-01  8.00000000e-01  4.38000000e-02
  4.38000000e-02  1.87311370e+01  2.82539370e+00  6.40121700e-01  1.61277800e-01
  1.87311370e+01  2.82539370e+00  6.40121700e-01  1.61277800e-01  1.87311370e+01
  2.82539370e+00  6.40121700e-01  1.61277800e-01  5.48467170e+03  8.25234950e+02
  1.88046960e+02  5.29645000e+01  1.68975700e+01  5.79963530e+00  1.55396160e+01
  3.59993360e+00  1.01376180e+00  1.55396160e+01  3.59993360e+00  1.01376180e+00
  2.70005800e-01  2.70005800e-01  8.00000000e-01  8.45000000e-02  8.45000000e-02
  1.87311370e+01  2.82539370e+00  6.40121700e-01  1.61277800e-01  3.04752490e+03
  4.57369510e+02  1.03948690e+02  2.92101550e+01  9.28666300e+00  3.16392700e+00
  7.86827240e+00  1.88128850e+00  5.44249300e-01  7.86827240e+00  1.88128850e+00
  5.44249300e-01  1.68714400e-01  1.68714400e-01  8.00000000e-01  4.38000000e-02
  4.38000000e-02  1.87311370e+01  2.82539370e+00  6.40121700e-01  1.61277800e-01
  1.87311370e+01  2.82539370e+00  6.40121700e-01  1.61277800e-01  1.87311370e+01
  2.82539370e+00  6.40121700e-01  1.61277800e-01  1.87311370e+01  2.82539370e+00
  6.40121700e-01  1.61277800e-01  1.87311370e+01  2.82539370e+00  6.40121700e-01
  1.61277800e-01
Contraction coefficients                   R   N=         281
  1.83470016e-03  1.40373012e-02  6.88426061e-02  2.32184421e-01  4.67941342e-01
  3.62312032e-01 -1.19332409e-01 -1.60854212e-01  1.14345648e+00  6.89990956e-02
  3.16423980e-01  7.44308252e-01  1.00000000e+00  1.00000000e+00  1.00000000e+00
  1.00000000e+00  1.00000000e+00  1.83470016e-03  1.40373012e-02  6.88426061e-02
  2.32184421e-01  4.67941342e-01  3.62312032e-01 -1.19332409e-01 -1.60854212e-01
  1.14345648e+00  6.89990956e-02  3.16423980e-01  7.44308252e-01  1.00000000e+00
  1.00000000e+00  1.00000000e+00  1.00000000e+00  1.00000000e+00  1.83470016e-03
  1.40373012e-02  6.88426061e-02  2.32184421e-01  4.67941342e-01  3.62312032e-01
 -1.19332409e-01 -1.60854212e-01  1.14345648e+00  6.89990956e-02  3.16423980e-01
  7.44308252e-01  1.00000000e+00  1.00000000e+00  1.00000000e+00  1.00000000e+00
  1.00000000e+00  1.83470016e-03  1.40373012e-02  6.88426061e-02  2.32184421e-01
  4.67941342e-01  3.62312032e-01 -1.19332409e-01 -1.60854212e-01  1.14345648e+00
  6.89990956e-02  3.16423980e-01  7.44308252e-01  1.00000000e+00  1.00000000e+00
  1.00000000e+00  1.00000000e+00  1.00000000e+00  1.83470016e-03  1.40373012e-02
  6.88426061e-02  2.32184421e-01  4.67941342e-01  3.62312032e-01 -1.19332409e-01
 -1.60854212e-01  1.14345648e+00  6.89990956e-02  3.16423980e-01  7.44308252e-01
  1.00000000e+00  1.00000000e+00  1.00000000e+00  1.00000000e+00  1.00000000e+00
  3.34945995e-02  2.34726947e-01  8.13757318e-01  1.00000000e+00  3.34945995e-02
  2.34726947e-01  8.13757318e-01  1.00000000e+00  3.34945995e-02  2.34726947e-01
  8.13757318e-01  1.00000000e+00  3.34945995e-02  2.34726947e-01  8.13757318e-01
  1.00000000e+00  1.83470016e-03  1.40373012e-02  6.88426061e-02  2.32184421e-01
  4.67941342e-01  3.62312032e-01 -1.19332409e-01 -1.60854212e-01  1.14345648e+00
  6.89990956e-02  3.16423980e-01  7.44308252e-01  1.00000000e+00  1.00000000e+00
  1.00000000e+00  1.00000000e+00  1.00000000e+00  1.83479944e-03  1.39949958e-02
  6.85869792e-02  2.32240930e-01  4.69069858e-01  3.60454891e-01 -1.14961023e-01
 -1.69118034e-01  1.14585223e+00  6.75800232e-02  3.23907111e-01  7.40895255e-01
  1.00000000e+00  1.00000000e+00  1.00000000e+00  1.00000000e+00  1.00000000e+00
  3.34945995e-02  2.34726947e-01  8.13757318e-01  1.00000000e+00  1.83109981e-03
  1.39500985e-02  6.84450927e-02  2.32714275e-01  4.70192950e-01  3.58520862e-01
 -1.10777504e-01 -1.48026305e-01  1.13076704e+00  7.08742995e-02  3.39752798e-01
  7.27158595e-01  1.00000000e+00  1.00000000e+00  1.00000000e+00  1.00000000e+00
  1.00000000e+00  1.83109981e-03  1.39500985e-02  6.84450927e-02  2.32714275e-01
  4.70192950e-01  3.58520862e-01 -1.10777504e-01 -1.48026305e-01  1.13076704e+00
  7.08742995e-02  3.39752798e-01  7.27158595e-01  1.00000000e+00  1.00000000e+00
  1.00000000e+00  1.00000000e+00  1.00000000e+00  1.83470016e-03  1.40373012e-02
  6.88426061e-02  2.32184421e-01  4.67941342e-01  3.62312032e-01 -1.19332409e-01
 -1.60854212e-01  1.14345648e+00  6.89990956e-02  3.16423980e-01  7.44308252e-01
  1.00000000e+00  1.00000000e+00  1.00000000e+00  1.00000000e+00  1.00000000e+00
  3.34945995e-02  2.34726947e-01  8.13757318e-01  1.00000000e+00  1.83470016e-03
  1.40373012e-02  6.88426061e-02  2.32184421e-01  4.67941342e-01  3.62312032e-01
 -1.19332409e-01 -1.60854212e-01  1.14345648e+00  6.89990956e-02  3.16423980e-01
  7.44308252e-01  1.00000000e+00  1.00000000e+00  1.00000000e+00  1.00000000e+00
  1.00000000e+00  3.34945995e-02  2.34726947e-01  8.13757318e-01  1.00000000e+00
  3.34945995e-02  2.34726947e-01  8.13757318e-01  1.00000000e+00  3.34945995e-02
  2.34726947e-01  8.13757318e-01  1.00000000e+00  1.83109981e-03  1.39500985e-02
  6.84450927e-02  2.32714275e-01  4.70192950e-01  3.58520862e-01 -1.10777504e-01
 -1.48026305e-01  1.13076704e+00  7.08742995e-02  3.39752798e-01  7.27158595e-01
  1.00000000e+00  1.00000000e+00  1.00000000e+00  1.00000000e+00  1.00000000e+00
  3.34945995e-02  2.34726947e-01  8.13757318e-01  1.00000000e+00  1.83470016e-03
  1.40373012e-02  6.88426061e-02  2.32184421e-01  4.67941342e-01  3.62312032e-01
 -1.19332409e-01 -1.60854212e-01  1.14345648e+00  6.89990956e-02  3.16423980e-01
  7.44308252e-01  1.00000000e+00  1.00000000e+00  1.00000000e+00  1.00000000e+00
  1.00000000e+00  3.34945995e-02  2.34726947e-01  8.13757318e-01  1.00000000e+00
  3.34945995e-02  2.34726947e-01  8.13757318e-01  1.00000000e+00  3.34945995e-02
  2.34726947e-01  8.13757318e-01  1.00000000e+00  3.34945995e-02  2.34726947e-01
  8.13757318e-01  1.00000000e+00  3.34945995e-02  2.34726947e-01  8.13757318e-01
  1.00000000e+00
Coordinates of each shell                  R   N=         402
  3.40588805e-01  2.04725242e+00  2.72981530e+00  3.40588805e-01  2.04725242e+00
  2.72981530e+00  3.40588805e-01  2.04725242e+00  2.72981530e+00  3.40588805e-01
  2.04725242e+00  2.72981530e+00  3.40588805e-01  2.04725242e+00  2.72981530e+00
  3.40588805e-01  2.04725242e+00  2.72981530e+00  3.40588805e-01  2.04725242e+00
  2.72981530e+00  3.40588805e-01  2.04725242e+00  2.72981530e+00  5.07167809e-01
  4.51827135e+00  1.14318139e+00  5.07167809e-01  4.51827135e+00  1.14318139e+00
  5.07167809e-01  4.51827135e+00  1.14318139e+00  5.07167809e-01  4.51827135e+00
  1.14318139e+00  5.07167809e-01  4.51827135e+00  1.14318139e+00  5.07167809e-01
  4.51827135e+00  1.14318139e+00  5.07167809e-01  4.51827135e+00  1.14318139e+00
  5.07167809e-01  4.51827135e+00  1.14318139e+00  1.39129998e+00  3.59602764e+00
 -1.50927075e+00  1.39129998e+00  3.59602764e+00 -1.50927075e+00  1.39129998e+00
  3.59602764e+00 -1.50927075e+00  1.39129998e+00  3.59602764e+00 -1.50927075e+00
  1.39129998e+00  3.59602764e+00 -1.50927075e+00  1.39129998e+00  3.59602764e+00
 -1.50927075e+00  1.39129998e+00  3.59602764e+00 -1.50927075e+00  1.39129998e+00
  3.59602764e+00 -1.50927075e+00 -7.00500545e-01 -8.40541175e-01 -1.80890926e+00
 -7.00500545e-01 -8.40541175e-01 -1.80890926e+00 -7.00500545e-01 -8.40541175e-01
 -1.80890926e+00 -7.00500545e-01 -8.40541175e-01 -1.80890926e+00 -7.00500545e-01
 -8.40541175e-01 -1.80890926e+00 -7.00500545e-01 -8.40541175e-01 -1.80890926e+00
 -7.00500545e-01 -8.40541175e-01 -1.80890926e+00 -7.00500545e-01 -8.40541175e-01
 -1.80890926e+00  1.71478345e+00  6.93260701e-01 -1.17745542e+00  1.71478345e+00
  6.93260701e-01 -1.17745542e+00  1.71478345e+00  6.93260701e-01 -1.17745542e+00
  1.71478345e+00  6.93260701e-01 -1.17745542e+00  1.71478345e+00  6.93260701e-01
 -1.17745542e+00  1.71478345e+00  6.93260701e-01 -1.17745542e+00  1.71478345e+00
  6.93260701e-01 -1.17745542e+00  1.71478345e+00  6.93260701e-01 -1.17745542e+00
  8.41260702e-02  4.05943550e+00 -3.04456504e+00  8.41260702e-02  4.05943550e+00
 -3.04456504e+00  3.20027705e+00  4.46168986e+00 -2.01686146e+00  3.20027705e+00
  4.46168986e+00 -2.01686146e+00 -1.28804030e+00  5.54972025e+00  1.12166660e+00
 -1.28804030e+00  5.54972025e+00  1.12166660e+00  1.89804867e+00  5.81278895e+00
  1.96208532e+00  1.89804867e+00  5.81278895e+00  1.96208532e+00 -2.85330200e-01
 -3.71027412e+00 -1.55073737e+00 -2.85330200e-01 -3.71027412e+00 -1.55073737e+00
 -2.85330200e-01 -3.71027412e+00 -1.55073737e+00 -2.85330200e-01 -3.71027412e+00
 -1.55073737e+00 -2.85330200e-01 -3.71027412e+00 -1.55073737e+00 -2.85330200e-01
 -3.71027412e+00 -1.55073737e+00 -2.85330200e-01 -3.71027412e+00 -1.55073737e+00
 -2.85330200e-01 -3.71027412e+00 -1.55073737e+00  2.24301166e+00  3.37275883e-01
  1.56431703e+00  2.24301166e+00  3.37275883e-01  1.56431703e+00  2.24301166e+00
  3.37275883e-01  1.56431703e+00  2.24301166e+00  3.37275883e-01  1.56431703e+00
  2.24301166e+00  3.37275883e-01  1.56431703e+00  2.24301166e+00  3.37275883e-01
  1.56431703e+00  2.24301166e+00  3.37275883e-01  1.56431703e+00  2.24301166e+00
  3.37275883e-01  1.56431703e+00  3.30003093e+00 -4.24598950e-02 -2.28569745e+00
  3.30003093e+00 -4.24598950e-02 -2.28569745e+00  1.01349170e+00 -4.47226002e+00
  4.99222900e-01  1.01349170e+00 -4.47226002e+00  4.99222900e-01  1.01349170e+00
 -4.47226002e+00  4.99222900e-01  1.01349170e+00 -4.47226002e+00  4.99222900e-01
  1.01349170e+00 -4.47226002e+00  4.99222900e-01  1.01349170e+00 -4.47226002e+00
  4.99222900e-01  1.01349170e+00 -4.47226002e+00  4.99222900e-01  1.01349170e+00
 -4.47226002e+00  4.99222900e-01 -1.13528182e+00 -5.20641035e+00 -3.06268483e+00
 -1.13528182e+00 -5.20641035e+00 -3.06268483e+00 -1.13528182e+00 -5.20641035e+00
 -3.06268483e+00 -1.13528182e+00 -5.20641035e+00 -3.06268483e+00 -1.13528182e+00
 -5.20641035e+00 -3.06268483e+00 -1.13528182e+00 -5.20641035e+00 -3.06268483e+00
 -1.13528182e+00 -5.20641035e+00 -3.06268483e+00 -1.13528182e+00 -5.20641035e+00
 -3.06268483e+00 -3.01958323e+00 -1.80533592e-02 -1.61905535e-01 -3.01958323e+00
 -1.80533592e-02 -1.61905535e-01 -3.01958323e+00 -1.80533592e-02 -1.61905535e-01
 -3.01958323e+00 -1.80533592e-02 -1.61905535e-01 -3.01958323e+00 -1.80533592e-02
 -1.61905535e-01 -3.01958323e+00 -1.80533592e-02 -1.61905535e-01 -3.01958323e+00
 -1.80533592e-02 -1.61905535e-01 -3.01958323e+00 -1.80533592e-02 -1.61905535e-01
 -1.22851507e+00 -5.39282510e-01 -3.78328805e+00 -1.22851507e+00 -5.39282510e-01
 -3.78328805e+00 -2.24348123e+00  7.19724116e-01  2.55793891e+00 -2.24348123e+00
  7.19724116e-01  2.55793891e+00 -2.24348123e+00  7.19724116e-01  2.55793891e+00
 -2.24348123e+00  7.19724116e-01  2.55793891e+00 -2.24348123e+00  7.19724116e-01
  2.55793891e+00 -2.24348123e+00  7.19724116e-01  2.55793891e+00 -2.24348123e+00
  7.19724116e-01  2.55793891e+00 -2.24348123e+00  7.19724116e-01  2.55793891e+00
  8.20820863e-01  2.35856906e+00  4.71805911e+00  8.20820863e-01  2.35856906e+00
  4.71805911e+00 -2.15105221e+00 -9.95642487e-01  3.71822904e+00 -2.15105221e+00
 -9.95642487e-01  3.71822904e+00 -3.73407314e+00  1.91370627e+00  3.36127676e+00
 -3.73407314e+00  1.91370627e+00  3.36127676e+00 -4.48065925e+00  1.90792055e+00
 -1.38625146e+00 -4.48065925e+00  1.90792055e+00 -1.38625146e+00 -4.48065925e+00
  1.90792055e+00 -1.38625146e+00 -4.48065925e+00  1.90792055e+00 -1.38625146e+00
 -4.48065925e+00  1.90792055e+00 -1.38625146e+00 -4.48065925e+00  1.90792055e+00
 -1.38625146e+00 -4.48065925e+00  1.90792055e+00 -1.38625146e+00 -4.48065925e+00
  1.90792055e+00 -1.38625146e+00 -4.34364022e+00 -1.60093636e+00 -7.52546441e-02
 -4.34364022e+00 -1.60093636e+00 -7.52546441e-02  4.86397539e+00  8.96350363e-01
  2.28329065e+00  4.86397539e+00  8.96350363e-01  2.28329065e+00  4.86397539e+00
  8.96350363e-01  2.28329065e+00  4.86397539e+00  8.96350363e-01  2.28329065e+00
  4.86397539e+00  8.96350363e-01  2.28329065e+00  4.86397539e+00  8.96350363e-01
  2.28329065e+00  4.86397539e+00  8.96350363e-01  2.28329065e+00  4.86397539e+00
  8.96350363e-01  2.28329065e+00  5.07575178e+00  6.21516696e-01  4.32228498e+00
  5.07575178e+00  6.21516696e-01  4.32228498e+00  5.46999284e+00  2.83134242e+00
  1.81542708e+00  5.46999284e+00  2.83134242e+00  1.81542708e+00  6.12472986e+00
 -4.31481263e-01  1.32068796e+00  6.12472986e+00 -4.31481263e-01  1.32068796e+00
 -3.53623071e+00  3.47323788e+00 -1.44350944e+00 -3.53623071e+00  3.47323788e+00
 -1.44350944e+00  1.59910235e+00 -2.91896870e+00  1.42121569e+00  1.59910235e+00
 -2.91896870e+00  1.42121569e+00
Total Energy                               R     -6.324284499888915e+02
Alpha Orbital Energies                     R   N=         277
 -1.91797979e+01 -1.91705764e+01 -1.91322918e+01 -1.43731405e+01 -1.03140606e+01
 -1.02627505e+01 -1.02501556e+01 -1.02478594e+01 -1.02368019e+01 -1.02183448e+01
 -1.02180498e+01 -1.02165125e+01 -1.02073716e+01 -1.08958226e+00 -1.04059742e+00
 -1.00935698e+00 -9.74094614e-01 -8.23114578e-01 -7.97332731e-01 -7.88883734e-01
 -7.15497156e-01 -6.89036513e-01 -6.47007376e-01 -6.12888309e-01 -5.96662936e-01
 -5.81476932e-01 -5.55043084e-01 -5.16243660e-01 -4.98845078e-01 -4.93700656e-01
 -4.81659192e-01 -4.70080120e-01 -4.60850996e-01 -4.42049131e-01 -4.38950464e-01
 -4.30411410e-01 -4.24012265e-01 -4.12020972e-01 -4.06488308e-01 -3.89186493e-01
 -3.81520816e-01 -3.74713445e-01 -3.67059692e-01 -3.55774667e-01 -3.51231370e-01
 -3.28556156e-01 -3.08188658e-01 -2.92886554e-01 -2.67393872e-01 -2.62086567e-01
 -2.20853139e-02 -3.84735518e-04  8.97982273e-04  7.10715370e-03  1.14073671e-02
  2.08440033e-02  2.60457876e-02  3.01231898e-02  3.86075853e-02  4.23665326e-02
  4.60114125e-02  6.67863260e-02  6.89694960e-02  7.48020164e-02  7.67166464e-02
  7.96021659e-02  8.29966720e-02  9.10665605e-02  9.62841385e-02  1.06111352e-01
  1.11775814e-01  1.14161459e-01  1.17232329e-01  1.23718073e-01  1.28333324e-01
  1.31274660e-01  1.42707219e-01  1.47197166e-01  1.52320131e-01  1.53038292e-01
  1.60302950e-01  1.62029046e-01  1.67894943e-01  1.76210381e-01  1.82232741e-01
  1.83165184e-01  1.84610272e-01  1.92283765e-01  1.98210539e-01  2.03137263e-01
  2.05775583e-01  2.11378335e-01  2.16004288e-01  2.21568887e-01  2.23642052e-01
  2.30701523e-01  2.41819927e-01  2.43731349e-01  2.46010480e-01  2.55301868e-01
  2.60639238e-01  2.65158618e-01  2.68168637e-01  2.75461485e-01  2.80012641e-01
  2.83406781e-01  2.93200459e-01  2.98281463e-01  3.04709866e-01  3.13755494e-01
  3.20595118e-01  3.21767179e-01  3.31137309e-01  3.33281987e-01  3.37138780e-01
  3.46885482e-01  3.52293940e-01  3.53932005e-01  3.60745144e-01  3.64492880e-01
  3.72660605e-01  3.74734797e-01  3.80600518e-01  3.97362727e-01  4.06967318e-01
  4.19828051e-01  4.21478033e-01  4.30716078e-01  4.63055943e-01  4.71797228e-01
  4.94468711e-01  5.27715419e-01  6.13039581e-01  6.37425293e-01  6.43733715e-01
  6.69733176e-01  6.72120845e-01  6.90575041e-01  6.99767160e-01  7.09471637e-01
  7.14474401e-01  7.36295329e-01  7.46669637e-01  7.57147852e-01  7.74299162e-01
  7.74483335e-01  8.06009003e-01  8.20239199e-01  8.31679208e-01  8.36534728e-01
  8.46822514e-01  8.63558393e-01  8.77482683e-01  8.90748599e-01  9.29408716e-01
  9.40865430e-01  9.41982065e-01  9.63666885e-01  9.69755552e-01  9.82034023e-01
  1.00640820e+00  1.01229346e+00  1.02187133e+00  1.03792160e+00  1.05469029e+00
  1.06388425e+00  1.07200550e+00  1.08919828e+00  1.10111231e+00  1.12182609e+00
  1.13564466e+00  1.14071656e+00  1.14837087e+00  1.15714338e+00  1.17010163e+00
  1.18321816e+00  1.21971034e+00  1.24604081e+00  1.25430444e+00  1.28373268e+00
  1.30053454e+00  1.32356564e+00  1.33521249e+00  1.34918080e+00  1.36411987e+00
  1.37119911e+00  1.38146548e+00  1.39331637e+00  1.42355121e+00  1.44773006e+00
  1.47272514e+00  1.48242648e+00  1.48909032e+00  1.50307511e+00  1.53945841e+00
  1.55946070e+00  1.59129175e+00  1.62456432e+00  1.64397833e+00  1.64576100e+00
  1.68012622e+00  1.72311103e+00  1.72695469e+00  1.73018769e+00  1.75693222e+00
  1.76281235e+00  1.79763133e+00  1.81335383e+00  1.82209357e+00  1.83342161e+00
  1.83840349e+00  1.86524554e+00  1.88424548e+00  1.89069060e+00  1.89961102e+00
  1.90401316e+00  1.90812159e+00  1.92078595e+00  1.94307416e+00  1.96413567e+00
  1.97531945e+00  2.00835312e+00  2.01413022e+00  2.03815539e+00  2.07454931e+00
  2.07662926e+00  2.10533817e+00  2.11710632e+00  2.14752713e+00  2.17377756e+00
  2.18296753e+00  2.20285380e+00  2.23805946e+00  2.25639153e+00  2.27654114e+00
  2.28688952e+00  2.35188528e+00  2.35767467e+00  2.39779083e+00  2.42694663e+00
  2.44676846e+00  2.49493249e+00  2.51590464e+00  2.52488536e+00  2.53747972e+00
  2.55746724e+00  2.56119657e+00  2.58221503e+00  2.63379283e+00  2.64930577e+00
  2.66661214e+00  2.69158952e+00  2.70624005e+00  2.75569620e+00  2.78124791e+00
  2.81191781e+00  2.81593608e+00  2.86223238e+00  2.87769985e+00  2.91296255e+00
  2.94581053e+00  3.05432173e+00  3.12588064e+00  3.19622304e+00  4.17099002e+00
  4.19574688e+00  4.26075471e+00  4.29798565e+00  4.32499571e+00  4.36213616e+00
  4.41458978e+00  4.49681005e+00  4.64387270e+00  4.66635697e+00  4.72037840e+00
  4.80871614e+00  4.83547324e+00
Alpha MO coefficients                      R   N=       76729
  5.25932545e-06  3.56674612e-05 -8.92947579e-06 -1.66687295e-05  2.93611792e-05
 -3.50564381e-04  1.50856800e-04  3.72316719e-04 -1.78777924e-04  1.09818755e-06