Generated by Psi4
     FORCE                           RHF                       TESTBAS
Number of atoms                            I               40
Charge                                     I                0
Multiplicity                               I                1
Number of electrons                        I              142
Number of alpha electrons                  I               71
Number of beta electrons                   I               71
Number of basis functions                  I              403
Number of independent functions            I              403
Atomic numbers                             I   N=          40
           6           7           6           6           1           1
           6           6           6           1           1           1
           1           6           6           6           6           6
           6           1           1           1           6           8
           8           6           1           1           1           1
           1           1           8           1           6           1
           1           1           1           1
Nuclear charges                            R   N=          40
  6.00000000e+00  7.00000000e+00  6.00000000e+00  6.00000000e+00  1.00000000e+00
  1.00000000e+00  6.00000000e+00  6.00000000e+00  6.00000000e+00  1.00000000e+00
  1.00000000e+00  1.00000000e+00  1.00000000e+00  6.00000000e+00  6.00000000e+00
  6.00000000e+00  6.00000000e+00  6.00000000e+00  6.00000000e+00  1.00000000e+00
  1.00000000e+00  1.00000000e+00  6.00000000e+00  8.00000000e+00  8.00000000e+00
  6.00000000e+00  1.00000000e+00  1.00000000e+00  1.00000000e+00  1.00000000e+00
  1.00000000e+00  1.00000000e+00  8.00000000e+00  1.00000000e+00  6.00000000e+00
  1.00000000e+00  1.00000000e+00  1.00000000e+00  1.00000000e+00  1.00000000e+00
Current cartesian coordinates              R   N=         120
  4.23295235e+00 -1.35894196e+00 -7.96835163e+00  3.72598119e+00 -7.91116163e-01
 -5.32454937e+00  2.14527554e+00 -2.72435911e+00 -4.14598069e+00  1.83302351e+00
 -2.22981766e+00 -1.31130029e+00  3.05755691e+00 -4.56566929e+00 -4.41588627e+00
  2.64238666e-01 -2.84071723e+00 -5.07281888e+00  6.45236925e-01  3.84452518e-01
 -7.66429896e-01  2.21678958e+00  2.38558046e+00 -2.22595525e+00  2.60017688e+00
  1.71879833e+00 -5.01757646e+00  4.06559941e+00  2.52013309e+00 -1.30001243e+00
  1.31078730e+00  4.23737180e+00 -2.09812568e+00  3.87823464e+00  3.10918706e+00
 -5.87166631e+00  7.76091964e-01  1.85697980e+00 -6.03520553e+00  5.77937535e-01
  1.05786134e+00  2.07344992e+00 -4.45144364e-01  3.38436890e+00  2.83914875e+00
  1.51229793e+00 -5.79712623e-01  3.93267328e+00  1.44717578e+00  9.87690591e-02
  6.48876380e+00  4.40168380e-01  2.41839078e+00  7.24000732e+00 -5.05922129e-01
  4.04361070e+00  5.39403920e+00  2.29388360e+00 -2.40775674e+00  3.42064991e+00
 -1.21382522e+00  4.67677450e+00  1.44348890e+00  4.07465972e-01  2.90825439e+00
  9.23199362e+00 -2.13225509e+00  4.75068566e-01 -1.65673798e+00 -3.11155405e+00
  2.25619917e+00 -2.72821467e+00 -3.41282055e+00 -1.63444992e+00 -1.01933011e+00
 -6.09114474e+00 -1.66658031e+00 -1.60141875e+00  3.71970274e+00 -2.27833066e+00
 -4.56558008e-01  7.03831967e-01 -3.74200039e+00 -4.67004974e-01  5.16264646e+00
 -3.20300130e+00 -8.12256461e+00  5.50446277e+00  7.19500747e-02 -8.75747383e+00
  2.49560956e+00 -1.40249575e+00 -9.14016860e+00 -1.30478802e+00  5.85138423e+00
  5.95457549e+00  2.35474945e+00 -1.46555785e+00  8.35042775e+00  3.00644581e+00
 -3.00759937e+00  7.60425704e+00 -7.14453159e+00 -4.17463110e+00 -6.94656565e-01
 -6.32329568e+00 -1.41361403e+00 -3.64140087e+00 -6.98309435e+00 -5.84963918e-02
 -6.53996828e-01 -6.22323291e+00 -5.76138193e+00 -1.65346871e+00 -9.17434170e+00
 -4.26230246e+00 -1.10019828e+00 -6.87942105e+00 -4.39785455e+00  1.34590039e+00
Integer atomic weights                     I   N=          40
          12          14          12          12           1           1
          12          12          12           1           1           1
           1          12          12          12          12          12
          12           1           1           1          12          15
          15          12           1           1           1           1
           1           1          15           1          12           1
           1           1           1           1
Real atomic weights                        R   N=          40
  1.20000000e+01  1.40030740e+01  1.20000000e+01  1.20000000e+01  1.00782503e+00
  1.00782503e+00  1.20000000e+01  1.20000000e+01  1.20000000e+01  1.00782503e+00
  1.00782503e+00  1.00782503e+00  1.00782503e+00  1.20000000e+01  1.20000000e+01
  1.20000000e+01  1.20000000e+01  1.20000000e+01  1.20000000e+01  1.00782503e+00
  1.00782503e+00  1.00782503e+00  1.20000000e+01  1.59949146e+01  1.59949146e+01
  1.20000000e+01  1.00782503e+00  1.00782503e+00  1.00782503e+00  1.00782503e+00
  1.00782503e+00  1.00782503e+00  1.59949146e+01  1.00782503e+00  1.20000000e+01
  1.00782503e+00  1.00782503e+00  1.00782503e+00  1.00782503e+00  1.00782503e+00
Number of primitive shells                 I              407
Number of contracted shells                I              194
Pure/Cartesian d shells                    I                1
Pure/Cartesian f shells                    I                1
Highest angular momentum                   I                2
Largest degree of contraction              I                6
Shell types                                I   N=         194
           0           0           1           0           1           2
           0           1           0           0           1           0
           1           2           0           1           0           0
           1           0           1           2           0           1
           0           0           1           0           1           2
           0           1           0           0           0           0
           0           0           1           0           1           2
           0           1           0           0           1           0
           1           2           0           1           0           0
           1           0           1           2           0           1
           0           0           0           0           0           0
           0           0           0           0           1           0
           1           2           0           1           0           0
           1           0           1           2           0           1
           0           0           1           0           1           2
           0           1           0           0           1           0
           1           2           0           1           0           0
           1           0           1           2           0           1
           0           0           1           0           1           2
           0           1           0           0           0           0
           0           0           0           0           1           0
           1           2           0           1           0           0
           1           0           1           2           0           1
           0           0           1           0           1           2
           0           1           0           0           1           0
           1           2           0           1           0           0
           0           0           0           0           0           0
           0           0           0           0           0           0
           1           0           1           2           0           1
           0           0           0           0           1           0
           1           2           0           1           0           0
           0           0           0           0           0           0
           0           0
Number of primitives per shell             I   N=         194
           6           3           3           1           1           1
           1           1           6           3           3           1
           1           1           1           1           6           3
           3           1           1           1           1           1
           6           3           3           1           1           1
           1           1           3           1           3           1
           6           3           3           1           1           1
           1           1           6           3           3           1
           1           1           1           1           6           3
           3           1           1           1           1           1
           3           1           3           1           3           1
           3           1           6           3           3           1
           1           1           1           1           6           3
           3           1           1           1           1           1
           6           3           3           1           1           1
           1           1           6           3           3           1
           1           1           1           1           6           3
           3           1           1           1           1           1
           6           3           3           1           1           1
           1           1           3           1           3           1
           3           1           6           3           3           1
           1           1           1           1           6           3
           3           1           1           1           1           1
           6           3           3           1           1           1
           1           1           6           3           3           1
           1           1           1           1           3           1
           3           1           3           1           3           1
           3           1           3           1           6           3
           3           1           1           1           1           1
           3           1           6           3           3           1
           1           1           1           1           3           1
           3           1           3           1           3           1
           3           1
Shell to atom map                          I   N=         194
           1           1           1           1           1           1
           1           1           2           2           2           2
           2           2           2           2           3           3
           3           3           3           3           3           3
           4           4           4           4           4           4
           4           4           5           5           6           6
           7           7           7           7           7           7
           7           7           8           8           8           8
           8           8           8           8           9           9
           9           9           9           9           9           9
          10          10          11          11          12          12
          13          13          14          14          14          14
          14          14          14          14          15          15
          15          15          15          15          15          15
          16          16          16          16          16          16
          16          16          17          17          17          17
          17          17          17          17          18          18
          18          18          18          18          18          18
          19          19          19          19          19          19
          19          19          20          20          21          21
          22          22          23          23          23          23
          23          23          23          23          24          24
          24          24          24          24          24          24
          25          25          25          25          25          25
          25          25          26          26          26          26
          26          26          26          26          27          27
          28          28          29          29          30          30
          31          31          32          32          33          33
          33          33          33          33          33          33
          34          34          35          35          35          35
          35          35          35          35          36          36
          37          37          38          38          39          39
          40          40
Primitive exponents                        R   N=         407
  3.04752490e+03  4.57369510e+02  1.03948690e+02  2.92101550e+01  9.28666300e+00
  3.16392700e+00  7.86827240e+00  1.88128850e+00  5.44249300e-01  7.86827240e+00
  1.88128850e+00  5.44249300e-01  1.68714400e-01  1.68714400e-01  8.00000000e-01
  4.38000000e-02  4.38000000e-02  4.17351100e+03  6.27457900e+02  1.42902100e+02
  4.02343300e+01  1.28202100e+01  4.39043700e+00  1.16263580e+01  2.71628000e+00
  7.72218000e-01  1.16263580e+01  2.71628000e+00  7.72218000e-01  2.12031300e-01
  2.12031300e-01  8.00000000e-01  6.39000000e-02  6.39000000e-02  3.04752490e+03
  4.57369510e+02  1.03948690e+02  2.92101550e+01  9.28666300e+00  3.16392700e+00
  7.86827240e+00  1.88128850e+00  5.44249300e-01  7.86827240e+00  1.88128850e+00
  5.44249300e-01  1.68714400e-01  1.68714400e-01  8.00000000e-01  4.38000000e-02
  4.38000000e-02  3.04752490e+03  4.57369510e+02  1.03948690e+02  2.92101550e+01
  9.28666300e+00  3.16392700e+00  7.86827240e+00  1.88128850e+00  5.44249300e-01
  7.86827240e+00  1.88128850e+00  5.44249300e-01  1.68714400e-01  1.68714400e-01
  8.00000000e-01  4.38000000e-02  4.38000000e-02  1.87311370e+01  2.82539370e+00
  6.40121700e-01  1.61277800e-01  1.87311370e+01  2.82539370e+00  6.40121700e-01
  1.61277800e-01  3.04752490e+03  4.57369510e+02  1.03948690e+02  2.92101550e+01
  9.28666300e+00  3.16392700e+00  7.86827240e+00  1.88128850e+00  5.44249300e-01
  7.86827240e+00  1.88128850e+00  5.44249300e-01  1.68714400e-01  1.68714400e-01
  8.00000000e-01  4.38000000e-02  4.38000000e-02  3.04752490e+03  4.57369510e+02
  1.03948690e+02  2.92101550e+01  9.28666300e+00  3.16392700e+00  7.86827240e+00
  1.88128850e+00  5.44249300e-01  7.86827240e+00  1.88128850e+00  5.44249300e-01
  1.68714400e-01  1.68714400e-01  8.00000000e-01  4.38000000e-02  4.38000000e-02
  3.04752490e+03  4.57369510e+02  1.03948690e+02  2.92101550e+01  9.28666300e+00
  3.16392700e+00  7.86827240e+00  1.88128850e+00  5.44249300e-01  7.86827240e+00
  1.88128850e+00  5.44249300e-01  1.68714400e-01  1.68714400e-01  8.00000000e-01
  4.38000000e-02  4.38000000e-02  1.87311370e+01  2.82539370e+00  6.40121700e-01
  1.61277800e-01  1.87311370e+01  2.82539370e+00  6.40121700e-01  1.61277800e-01
  1.87311370e+01  2.82539370e+00  6.40121700e-01  1.61277800e-01  1.87311370e+01
  2.82539370e+00  6.40121700e-01  1.61277800e-01  3.04752490e+03  4.57369510e+02
  1.03948690e+02  2.92101550e+01  9.28666300e+00  3.16392700e+00  7.86827240e+00
  1.88128850e+00  5.44249300e-01  7.86827240e+00  1.88128850e+00  5.44249300e-01
  1.68714400e-01  1.68714400e-01  8.00000000e-01  4.38000000e-02  4.38000000e-02
  3.04752490e+03  4.57369510e+02  1.03948690e+02  2.92101550e+01  9.28666300e+00
  3.16392700e+00  7.86827240e+00  1.88128850e+00  5.44249300e-01  7.86827240e+00
  1.88128850e+00  5.44249300e-01  1.68714400e-01  1.68714400e-01  8.00000000e-01
  4.38000000e-02  4.38000000e-02  3.04752490e+03  4.57369510e+02  1.03948690e+02
  2.92101550e+01  9.28666300e+00  3.16392700e+00  7.86827240e+00  1.88128850e+00
  5.44249300e-01  7.86827240e+00  1.88128850e+00  5.44249300e-01  1.68714400e-01
  1.68714400e-01  8.00000000e-01  4.38000000e-02  4.38000000e-02  3.04752490e+03
  4.57369510e+02  1.03948690e+02  2.92101550e+01  9.28666300e+00  3.16392700e+00
  7.86827240e+00  1.88128850e+00  5.44249300e-01  7.86827240e+00  1.88128850e+00
  5.44249300e-01  1.68714400e-01  1.68714400e-01  8.00000000e-01  4.38000000e-02
  4.38000000e-02  3.04752490e+03  4.57369510e+02  1.03948690e+02  2.92101550e+01
  9.28666300e+00  3.16392700e+00  7.86827240e+00  1.88128850e+00  5.44249300e-01
  7.86827240e+00  1.88128850e+00  5.44249300e-01  1.68714400e-01  1.68714400e-01
  8.00000000e-01  4.38000000e-02  4.38000000e-02  3.04752490e+03  4.57369510e+02
  1.03948690e+02  2.92101550e+01  9.28666300e+00  3.16392700e+00  7.86827240e+00
  1.88128850e+00  5.44249300e-01  7.86827240e+00  1.88128850e+00  5.44249300e-01
  1.68714400e-01  1.68714400e-01  8.00000000e-01  4.38000000e-02  4.38000000e-02
  1.87311370e+01  2.82539370e+00  6.40121700e-01  1.61277800e-01  1.87311370e+01
  2.82539370e+00  6.40121700e-01  1.61277800e-01  1.87311370e+01  2.82539370e+00
  6.40121700e-01  1.61277800e-01  3.04752490e+03  4.57369510e+02  1.03948690e+02
  2.92101550e+01  9.28666300e+00  3.16392700e+00  7.86827240e+00  1.88128850e+00
  5.44249300e-01  7.86827240e+00  1.88128850e+00  5.44249300e-01  1.68714400e-01
  1.68714400e-01  8.00000000e-01  4.38000000e-02  4.38000000e-02  5.48467170e+03
  8.25234950e+02  1.88046960e+02  5.29645000e+01  1.68975700e+01  5.79963530e+00
  1.55396160e+01  3.59993360e+00  1.01376180e+00  1.55396160e+01  3.59993360e+00
  1.01376180e+00  2.70005800e-01  2.70005800e-01  8.00000000e-01  8.45000000e-02
  8.45000000e-02  5.48467170e+03  8.25234950e+02  1.88046960e+02  5.29645000e+01
  1.68975700e+01  5.79963530e+00  1.55396160e+01  3.59993360e+00  1.01376180e+00
  1.55396160e+01  3.59993360e+00  1.01376180e+00  2.70005800e-01  2.70005800e-01
  8.00000000e-01  8.45000000e-02  8.45000000e-02  3.04752490e+03  4.57369510e+02
  1.03948690e+02  2.92101550e+01  9.28666300e+00  3.16392700e+00  7.86827240e+00
  1.88128850e+00  5.44249300e-01  7.86827240e+00  1.88128850e+00  5.44249300e-01
  1.68714400e-01  1.68714400e-01  8.00000000e-01  4.38000000e-02  4.38000000e-02
  1.87311370e+01  2.82539370e+00  6.40121700e-01  1.61277800e-01  1.87311370e+01
  2.82539370e+00  6.40121700e-01  1.61277800e-01  1.87311370e+01  2.82539370e+00
  6.40121700e-01  1.61277800e-01  1.87311370e+01  2.82539370e+00  6.40121700e-01
  1.61277800e-01  1.87311370e+01  2.82539370e+00  6.40121700e-01  1.61277800e-01
  1.87311370e+01  2.82539370e+00  6.40121700e-01  1.61277800e-01  5.48467170e+03
  8.25234950e+02  1.88046960e+02  5.29645000e+01  1.68975700e+01  5.79963530e+00
  1.55396160e+01  3.59993360e+00  1.01376180e+00  1.55396160e+01  3.59993360e+00
  1.01376180e+00  2.70005800e-01  2.70005800e-01  8.00000000e-01  8.45000000e-02
  8.45000000e-02  1.87311370e+01  2.82539370e+00  6.40121700e-01  1.61277800e-01
  3.04752490e+03  4.57369510e+02  1.03948690e+02  2.92101550e+01  9.28666300e+00
  3.16392700e+00  7.86827240e+00  1.88128850e+00  5.44249300e-01  7.86827240e+00
  1.88128850e+00  5.44249300e-01  1.68714400e-01  1.68714400e-01  8.00000000e-01
  4.38000000e-02  4.38000000e-02  1.87311370e+01  2.82539370e+00  6.40121700e-01
  1.61277800e-01  1.87311370e+01  2.82539370e+00  6.40121700e-01  1.61277800e-01
  1.87311370e+01  2.82539370e+00  6.40121700e-01  1.61277800e-01  1.87311370e+01
  2.82539370e+00  6.40121700e-01  1.61277800e-01  1.87311370e+01  2.82539370e+00
  6.40121700e-01  1.61277800e-01
Contraction coefficients                   R   N=         407
  1.83470016e-03  1.40373012e-02  6.88426061e-02  2.32184421e-01  4.67941342e-01
  3.62312032e-01 -1.19332409e-01 -1.60854212e-01  1.14345648e+00  6.89990956e-02
  3.16423980e-01  7.44308252e-01  1.00000000e+00  1.00000000e+00  1.00000000e+00
  1.00000000e+00  1.00000000e+00  1.83479944e-03  1.39949958e-02  6.85869792e-02
  2.32240930e-01  4.69069858e-01  3.60454891e-01 -1.14961023e-01 -1.69118034e-01
  1.14585223e+00  6.75800232e-02  3.23907111e-01  7.40895255e-01  1.00000000e+00
  1.00000000e+00  1.00000000e+00  1.00000000e+00  1.00000000e+00  1.83470016e-03
  1.40373012e-02  6.88426061e-02  2.32184421e-01  4.67941342e-01  3.62312032e-01
 -1.19332409e-01 -1.60854212e-01  1.14345648e+00  6.89990956e-02  3.16423980e-01
  7.44308252e-01  1.00000000e+00  1.00000000e+00  1.00000000e+00  1.00000000e+00
  1.00000000e+00  1.83470016e-03  1.40373012e-02  6.88426061e-02  2.32184421e-01
  4.67941342e-01  3.62312032e-01 -1.19332409e-01 -1.60854212e-01  1.14345648e+00
  6.89990956e-02  3.16423980e-01  7.44308252e-01  1.00000000e+00  1.00000000e+00
  1.00000000e+00  1.00000000e+00  1.00000000e+00  3.34945995e-02  2.34726947e-01
  8.13757318e-01  1.00000000e+00  3.34945995e-02  2.34726947e-01  8.13757318e-01
  1.00000000e+00  1.83470016e-03  1.40373012e-02  6.88426061e-02  2.32184421e-01
  4.67941342e-01  3.62312032e-01 -1.19332409e-01 -1.60854212e-01  1.14345648e+00
  6.89990956e-02  3.16423980e-01  7.44308252e-01  1.00000000e+00  1.00000000e+00
  1.00000000e+00  1.00000000e+00  1.00000000e+00  1.83470016e-03  1.40373012e-02
  6.88426061e-02  2.32184421e-01  4.67941342e-01  3.62312032e-01 -1.19332409e-01
 -1.60854212e-01  1.14345648e+00  6.89990956e-02  3.16423980e-01  7.44308252e-01
  1.00000000e+00  1.00000000e+00  1.00000000e+00  1.00000000e+00  1.00000000e+00
  1.83470016e-03  1.40373012e-02  6.88426061e-02  2.32184421e-01  4.67941342e-01
  3.62312032e-01 -1.19332409e-01 -1.60854212e-01  1.14345648e+00  6.89990956e-02
  3.16423980e-01  7.44308252e-01  1.00000000e+00  1.00000000e+00  1.00000000e+00
  1.00000000e+00  1.00000000e+00  3.34945995e-02  2.34726947e-01  8.13757318e-01
  1.00000000e+00  3.34945995e-02  2.34726947e-01  8.13757318e-01  1.00000000e+00
  3.34945995e-02  2.34726947e-01  8.13757318e-01  1.00000000e+00  3.34945995e-02
  2.34726947e-01  8.13757318e-01  1.00000000e+00  1.83470016e-03  1.40373012e-02
  6.88426061e-02  2.32184421e-01  4.67941342e-01  3.62312032e-01 -1.19332409e-01
 -1.60854212e-01  1.14345648e+00  6.89990956e-02  3.16423980e-01  7.44308252e-01
  1.00000000e+00  1.00000000e+00  1.00000000e+00  1.00000000e+00  1.00000000e+00
  1.83470016e-03  1.40373012e-02  6.88426061e-02  2.32184421e-01  4.67941342e-01
  3.62312032e-01 -1.19332409e-01 -1.60854212e-01  1.14345648e+00  6.89990956e-02
  3.16423980e-01  7.44308252e-01  1.00000000e+00  1.00000000e+00  1.00000000e+00
  1.00000000e+00  1.00000000e+00  1.83470016e-03  1.40373012e-02  6.88426061e-02
  2.32184421e-01  4.67941342e-01  3.62312032e-01 -1.19332409e-01 -1.60854212e-01
  1.14345648e+00  6.89990956e-02  3.16423980e-01  7.44308252e-01  1.00000000e+00
  1.00000000e+00  1.00000000e+00  1.00000000e+00  1.00000000e+00  1.83470016e-03
  1.40373012e-02  6.88426061e-02  2.32184421e-01  4.67941342e-01  3.62312032e-01
 -1.19332409e-01 -1.60854212e-01  1.14345648e+00  6.89990956e-02  3.16423980e-01
  7.44308252e-01  1.00000000e+00  1.00000000e+00  1.00000000e+00  1.00000000e+00
  1.00000000e+00  1.83470016e-03  1.40373012e-02  6.88426061e-02  2.32184421e-01
  4.67941342e-01  3.62312032e-01 -1.19332409e-01 -1.60854212e-01  1.14345648e+00
  6.89990956e-02  3.16423980e-01  7.44308252e-01  1.00000000e+00  1.00000000e+00
  1.00000000e+00  1.00000000e+00  1.00000000e+00  1.83470016e-03  1.40373012e-02
  6.88426061e-02  2.32184421e-01  4.67941342e-01  3.62312032e-01 -1.19332409e-01
 -1.60854212e-01  1.14345648e+00  6.89990956e-02  3.16423980e-01  7.44308252e-01
  1.00000000e+00  1.00000000e+00  1.00000000e+00  1.00000000e+00  1.00000000e+00
  3.34945995e-02  2.34726947e-01  8.13757318e-01  1.00000000e+00  3.34945995e-02
  2.34726947e-01  8.13757318e-01  1.00000000e+00  3.34945995e-02  2.34726947e-01
  8.13757318e-01  1.00000000e+00  1.83470016e-03  1.40373012e-02  6.88426061e-02
  2.32184421e-01  4.67941342e-01  3.62312032e-01 -1.19332409e-01 -1.60854212e-01
  1.14345648e+00  6.89990956e-02  3.16423980e-01  7.44308252e-01  1.00000000e+00
  1.00000000e+00  1.00000000e+00  1.00000000e+00  1.00000000e+00  1.83109981e-03
  1.39500985e-02  6.84450927e-02  2.32714275e-01  4.70192950e-01  3.58520862e-01
 -1.10777504e-01 -1.48026305e-01  1.13076704e+00  7.08742995e-02  3.39752798e-01
  7.27158595e-01  1.00000000e+00  1.00000000e+00  1.00000000e+00  1.00000000e+00
  1.00000000e+00  1.83109981e-03  1.39500985e-02  6.84450927e-02  2.32714275e-01
  4.70192950e-01  3.58520862e-01 -1.10777504e-01 -1.48026305e-01  1.13076704e+00
  7.08742995e-02  3.39752798e-01  7.27158595e-01  1.00000000e+00  1.00000000e+00
  1.00000000e+00  1.00000000e+00  1.00000000e+00  1.83470016e-03  1.40373012e-02
  6.88426061e-02  2.32184421e-01  4.67941342e-01  3.62312032e-01 -1.19332409e-01
 -1.60854212e-01  1.14345648e+00  6.89990956e-02  3.16423980e-01  7.44308252e-01
  1.00000000e+00  1.00000000e+00  1.00000000e+00  1.00000000e+00  1.00000000e+00
  3.34945995e-02  2.34726947e-01  8.13757318e-01  1.00000000e+00  3.34945995e-02
  2.34726947e-01  8.13757318e-01  1.00000000e+00  3.34945995e-02  2.34726947e-01
  8.13757318e-01  1.00000000e+00  3.34945995e-02  2.34726947e-01  8.13757318e-01
  1.00000000e+00  3.34945995e-02  2.34726947e-01  8.13757318e-01  1.00000000e+00
  3.34945995e-02  2.34726947e-01  8.13757318e-01  1.00000000e+00  1.83109981e-03
  1.39500985e-02  6.84450927e-02  2.32714275e-01  4.70192950e-01  3.58520862e-01
 -1.10777504e-01 -1.48026305e-01  1.13076704e+00  7.08742995e-02  3.39752798e-01
  7.27158595e-01  1.00000000e+00  1.00000000e+00  1.00000000e+00  1.00000000e+00
  1.00000000e+00  3.34945995e-02  2.34726947e-01  8.13757318e-01  1.00000000e+00
  1.83470016e-03  1.40373012e-02  6.88426061e-02  2.32184421e-01  4.67941342e-01
  3.62312032e-01 -1.19332409e-01 -1.60854212e-01  1.14345648e+00  6.89990956e-02
  3.16423980e-01  7.44308252e-01  1.00000000e+00  1.00000000e+00  1.00000000e+00
  1.00000000e+00  1.00000000e+00  3.34945995e-02  2.34726947e-01  8.13757318e-01
  1.00000000e+00  3.34945995e-02  2.34726947e-01  8.13757318e-01  1.00000000e+00
  3.34945995e-02  2.34726947e-01  8.13757318e-01  1.00000000e+00  3.34945995e-02
  2.34726947e-01  8.13757318e-01  1.00000000e+00  3.34945995e-02  2.34726947e-01
  8.13757318e-01  1.00000000e+00
Coordinates of each shell                  R   N=         582
  4.23295235e+00 -1.35894196e+00 -7.96835163e+00  4.23295235e+00 -1.35894196e+00
 -7.96835163e+00  4.23295235e+00 -1.35894196e+00 -7.96835163e+00  4.23295235e+00
 -1.35894196e+00 -7.96835163e+00  4.23295235e+00 -1.35894196e+00 -7.96835163e+00
  4.23295235e+00 -1.35894196e+00 -7.96835163e+00  4.23295235e+00 -1.35894196e+00
 -7.96835163e+00  4.23295235e+00 -1.35894196e+00 -7.96835163e+00  3.72598119e+00
 -7.91116163e-01 -5.32454937e+00  3.72598119e+00 -7.91116163e-01 -5.32454937e+00
  3.72598119e+00 -7.91116163e-01 -5.32454937e+00  3.72598119e+00 -7.91116163e-01
 -5.32454937e+00  3.72598119e+00 -7.91116163e-01 -5.32454937e+00  3.72598119e+00
 -7.91116163e-01 -5.32454937e+00  3.72598119e+00 -7.91116163e-01 -5.32454937e+00
  3.72598119e+00 -7.91116163e-01 -5.32454937e+00  2.14527554e+00 -2.72435911e+00
 -4.14598069e+00  2.14527554e+00 -2.72435911e+00 -4.14598069e+00  2.14527554e+00
 -2.72435911e+00 -4.14598069e+00  2.14527554e+00 -2.72435911e+00 -4.14598069e+00
  2.14527554e+00 -2.72435911e+00 -4.14598069e+00  2.14527554e+00 -2.72435911e+00
 -4.14598069e+00  2.14527554e+00 -2.72435911e+00 -4.14598069e+00  2.14527554e+00
 -2.72435911e+00 -4.14598069e+00  1.83302351e+00 -2.22981766e+00 -1.31130029e+00
  1.83302351e+00 -2.22981766e+00 -1.31130029e+00  1.83302351e+00 -2.22981766e+00
 -1.31130029e+00  1.83302351e+00 -2.22981766e+00 -1.31130029e+00  1.83302351e+00
 -2.22981766e+00 -1.31130029e+00  1.83302351e+00 -2.22981766e+00 -1.31130029e+00
  1.83302351e+00 -2.22981766e+00 -1.31130029e+00  1.83302351e+00 -2.22981766e+00
 -1.31130029e+00  3.05755691e+00 -4.56566929e+00 -4.41588627e+00  3.05755691e+00
 -4.56566929e+00 -4.41588627e+00  2.64238666e-01 -2.84071723e+00 -5.07281888e+00
  2.64238666e-01 -2.84071723e+00 -5.07281888e+00  6.45236925e-01  3.84452518e-01
 -7.66429896e-01  6.45236925e-01  3.84452518e-01 -7.66429896e-01  6.45236925e-01
  3.84452518e-01 -7.66429896e-01  6.45236925e-01  3.84452518e-01 -7.66429896e-01
  6.45236925e-01  3.84452518e-01 -7.66429896e-01  6.45236925e-01  3.84452518e-01
 -7.66429896e-01  6.45236925e-01  3.84452518e-01 -7.66429896e-01  6.45236925e-01
  3.84452518e-01 -7.66429896e-01  2.21678958e+00  2.38558046e+00 -2.22595525e+00
  2.21678958e+00  2.38558046e+00 -2.22595525e+00  2.21678958e+00  2.38558046e+00
 -2.22595525e+00  2.21678958e+00  2.38558046e+00 -2.22595525e+00  2.21678958e+00
  2.38558046e+00 -2.22595525e+00  2.21678958e+00  2.38558046e+00 -2.22595525e+00
  2.21678958e+00  2.38558046e+00 -2.22595525e+00  2.21678958e+00  2.38558046e+00
 -2.22595525e+00  2.60017688e+00  1.71879833e+00 -5.01757646e+00  2.60017688e+00
  1.71879833e+00 -5.01757646e+00  2.60017688e+00  1.71879833e+00 -5.01757646e+00
  2.60017688e+00  1.71879833e+00 -5.01757646e+00  2.60017688e+00  1.71879833e+00
 -5.01757646e+00  2.60017688e+00  1.71879833e+00 -5.01757646e+00  2.60017688e+00
  1.71879833e+00 -5.01757646e+00  2.60017688e+00  1.71879833e+00 -5.01757646e+00
  4.06559941e+00  2.52013309e+00 -1.30001243e+00  4.06559941e+00  2.52013309e+00
 -1.30001243e+00  1.31078730e+00  4.23737180e+00 -2.09812568e+00  1.31078730e+00
  4.23737180e+00 -2.09812568e+00  3.87823464e+00  3.10918706e+00 -5.87166631e+00
  3.87823464e+00  3.10918706e+00 -5.87166631e+00  7.76091964e-01  1.85697980e+00
 -6.03520553e+00  7.76091964e-01  1.85697980e+00 -6.03520553e+00  5.77937535e-01
  1.05786134e+00  2.07344992e+00  5.77937535e-01  1.05786134e+00  2.07344992e+00
  5.77937535e-01  1.05786134e+00  2.07344992e+00  5.77937535e-01  1.05786134e+00
  2.07344992e+00  5.77937535e-01  1.05786134e+00  2.07344992e+00  5.77937535e-01
  1.05786134e+00  2.07344992e+00  5.77937535e-01  1.05786134e+00  2.07344992e+00
  5.77937535e-01  1.05786134e+00  2.07344992e+00 -4.45144364e-01  3.38436890e+00
  2.83914875e+00 -4.45144364e-01  3.38436890e+00  2.83914875e+00 -4.45144364e-01