Generated by Psi4
     FORCE                           RHF                       TESTBAS
Number of atoms                            I               30
Charge                                     I                0
Multiplicity                               I                1
Number of electrons                        I              140
Number of alpha electrons                  I               70
Number of beta electrons                   I               70
Number of basis functions                  I              387
Number of independent functions            I              387
Atomic numbers                             I   N=          30
           6           6           6           6           7           6
           6           6           7           6           1           1
           1           1           6           1           1           1
           8           6           6           6           6           6
           6           1           1           1           1          17
Nuclear charges                            R   N=          30
  6.00000000e+00  6.00000000e+00  6.00000000e+00  6.00000000e+00  7.00000000e+00
  6.00000000e+00  6.00000000e+00  6.00000000e+00  7.00000000e+00  6.00000000e+00
  1.00000000e+00  1.00000000e+00  1.00000000e+00  1.00000000e+00  6.00000000e+00
  1.00000000e+00  1.00000000e+00  1.00000000e+00  8.00000000e+00  6.00000000e+00
  6.00000000e+00  6.00000000e+00  6.00000000e+00  6.00000000e+00  6.00000000e+00
  1.00000000e+00  1.00000000e+00  1.00000000e+00  1.00000000e+00  1.70000000e+01
Current cartesian coordinates              R   N=          90
  5.19386246e+00  2.76828642e+00  2.78985950e+00  3.17691375e+00  2.35649687e+00
  1.10960673e+00  7.11893628e+00  4.42459240e+00  2.13717725e+00  7.04537967e+00
  5.68771473e+00 -2.05059270e-01  1.13855506e+00  3.26597011e+00 -2.95266172e+00
  3.09273542e+00  3.61751559e+00 -1.24132377e+00  5.06318882e+00  5.29481856e+00
 -1.87613971e+00 -6.72764528e-01  1.72530558e+00 -2.37486593e+00 -7.71333765e-01
  3.97769885e-01 -9.25883327e-02  1.13649053e+00  6.15216931e-01  1.78326152e+00
  4.97855057e+00  6.25205972e+00 -3.68925284e+00  8.55804542e+00  6.98325461e+00
 -7.09246676e-01  8.68172958e+00  4.74768312e+00  3.42903930e+00  5.19868155e+00
  1.76652598e+00  4.58015626e+00 -2.78992984e+00  1.33185002e+00 -4.23053767e+00
 -2.42524800e+00  2.52619935e+00 -5.87066426e+00 -4.62630348e+00  1.83147579e+00
 -3.41479624e+00 -2.89982395e+00 -6.43603271e-01 -4.84203850e+00  9.84941183e-01
 -5.82511862e-01  3.75770818e+00 -2.82440480e+00 -1.29426163e+00  4.71161424e-01
 -2.74295203e+00 -3.84014109e+00 -2.48766721e-01 -4.73815460e+00 -5.46422356e+00
  3.35402230e-01 -6.82340332e+00 -4.54429996e+00  1.66197067e+00 -6.91566189e+00
 -2.01257700e+00  2.40673281e+00 -4.91566204e+00 -4.03008016e-01  1.81459242e+00
 -4.64026507e+00 -7.42958032e+00 -2.41434547e-01 -8.36956684e+00 -5.81561353e+00
  2.11870840e+00 -8.52852597e+00 -1.29671294e+00  3.45478985e+00 -4.93825000e+00
  1.56299186e+00  2.40454595e+00 -1.33538161e-01 -5.02483023e+00 -1.90616117e+00
Integer atomic weights                     I   N=          30
          12          12          12          12          14          12
          12          12          14          12           1           1
           1           1          12           1           1           1
          15          12          12          12          12          12
          12           1           1           1           1          34
Real atomic weights                        R   N=          30
  1.20000000e+01  1.20000000e+01  1.20000000e+01  1.20000000e+01  1.40030740e+01
  1.20000000e+01  1.20000000e+01  1.20000000e+01  1.40030740e+01  1.20000000e+01
  1.00782503e+00  1.00782503e+00  1.00782503e+00  1.00782503e+00  1.20000000e+01
  1.00782503e+00  1.00782503e+00  1.00782503e+00  1.59949146e+01  1.20000000e+01
  1.20000000e+01  1.20000000e+01  1.20000000e+01  1.20000000e+01  1.20000000e+01
  1.00782503e+00  1.00782503e+00  1.00782503e+00  1.00782503e+00  3.49688527e+01
Number of primitive shells                 I              379
Number of contracted shells                I              176
Pure/Cartesian d shells                    I                1
Pure/Cartesian f shells                    I                1
Highest angular momentum                   I                2
Largest degree of contraction              I                6
Shell types                                I   N=         176
           0           0           1           0           1           2
           0           1           0           0           1           0
           1           2           0           1           0           0
           1           0           1           2           0           1
           0           0           1           0           1           2
           0           1           0           0           1           0
           1           2           0           1           0           0
           1           0           1           2           0           1
           0           0           1           0           1           2
           0           1           0           0           1           0
           1           2           0           1           0           0
           1           0           1           2           0           1
           0           0           1           0           1           2
           0           1           0           0           0           0
           0           0           0           0           0           0
           1           0           1           2           0           1
           0           0           0           0           0           0
           0           0           1           0           1           2
           0           1           0           0           1           0
           1           2           0           1           0           0
           1           0           1           2           0           1
           0           0           1           0           1           2
           0           1           0           0           1           0
           1           2           0           1           0           0
           1           0           1           2           0           1
           0           0           1           0           1           2
           0           1           0           0           0           0
           0           0           0           0           0           0
           1           0           1           0           1           2
           0           1
Number of primitives per shell             I   N=         176
           6           3           3           1           1           1
           1           1           6           3           3           1
           1           1           1           1           6           3
           3           1           1           1           1           1
           6           3           3           1           1           1
           1           1           6           3           3           1
           1           1           1           1           6           3
           3           1           1           1           1           1
           6           3           3           1           1           1
           1           1           6           3           3           1
           1           1           1           1           6           3
           3           1           1           1           1           1
           6           3           3           1           1           1
           1           1           3           1           3           1
           3           1           3           1           6           3
           3           1           1           1           1           1
           3           1           3           1           3           1
           6           3           3           1           1           1
           1           1           6           3           3           1
           1           1           1           1           6           3
           3           1           1           1           1           1
           6           3           3           1           1           1
           1           1           6           3           3           1
           1           1           1           1           6           3
           3           1           1           1           1           1
           6           3           3           1           1           1
           1           1           3           1           3           1
           3           1           3           1           6           6
           6           3           3           1           1           1
           1           1
Shell to atom map                          I   N=         176
           1           1           1           1           1           1
           1           1           2           2           2           2
           2           2           2           2           3           3
           3           3           3           3           3           3
           4           4           4           4           4           4
           4           4           5           5           5           5
           5           5           5           5           6           6
           6           6           6           6           6           6
           7           7           7           7           7           7
           7           7           8           8           8           8
           8           8           8           8           9           9
           9           9           9           9           9           9
          10          10          10          10          10          10
          10          10          11          11          12          12
          13          13          14          14          15          15
          15          15          15          15          15          15
          16          16          17          17          18          18
          19          19          19          19          19          19
          19          19          20          20          20          20
          20          20          20          20          21          21
          21          21          21          21          21          21
          22          22          22          22          22          22
          22          22          23          23          23          23
          23          23          23          23          24          24
          24          24          24          24          24          24
          25          25          25          25          25          25
          25          25          26          26          27          27
          28          28          29          29          30          30
          30          30          30          30          30          30
          30          30
Primitive exponents                        R   N=         379
  3.04752490e+03  4.57369510e+02  1.03948690e+02  2.92101550e+01  9.28666300e+00
  3.16392700e+00  7.86827240e+00  1.88128850e+00  5.44249300e-01  7.86827240e+00
  1.88128850e+00  5.44249300e-01  1.68714400e-01  1.68714400e-01  8.00000000e-01
  4.38000000e-02  4.38000000e-02  3.04752490e+03  4.57369510e+02  1.03948690e+02
  2.92101550e+01  9.28666300e+00  3.16392700e+00  7.86827240e+00  1.88128850e+00
  5.44249300e-01  7.86827240e+00  1.88128850e+00  5.44249300e-01  1.68714400e-01
  1.68714400e-01  8.00000000e-01  4.38000000e-02  4.38000000e-02  3.04752490e+03
  4.57369510e+02  1.03948690e+02  2.92101550e+01  9.28666300e+00  3.16392700e+00
  7.86827240e+00  1.88128850e+00  5.44249300e-01  7.86827240e+00  1.88128850e+00
  5.44249300e-01  1.68714400e-01  1.68714400e-01  8.00000000e-01  4.38000000e-02
  4.38000000e-02  3.04752490e+03  4.57369510e+02  1.03948690e+02  2.92101550e+01
  9.28666300e+00  3.16392700e+00  7.86827240e+00  1.88128850e+00  5.44249300e-01
  7.86827240e+00  1.88128850e+00  5.44249300e-01  1.68714400e-01  1.68714400e-01
  8.00000000e-01  4.38000000e-02  4.38000000e-02  4.17351100e+03  6.27457900e+02
  1.42902100e+02  4.02343300e+01  1.28202100e+01  4.39043700e+00  1.16263580e+01
  2.71628000e+00  7.72218000e-01  1.16263580e+01  2.71628000e+00  7.72218000e-01
  2.12031300e-01  2.12031300e-01  8.00000000e-01  6.39000000e-02  6.39000000e-02
  3.04752490e+03  4.57369510e+02  1.03948690e+02  2.92101550e+01  9.28666300e+00
  3.16392700e+00  7.86827240e+00  1.88128850e+00  5.44249300e-01  7.86827240e+00
  1.88128850e+00  5.44249300e-01  1.68714400e-01  1.68714400e-01  8.00000000e-01
  4.38000000e-02  4.38000000e-02  3.04752490e+03  4.57369510e+02  1.03948690e+02
  2.92101550e+01  9.28666300e+00  3.16392700e+00  7.86827240e+00  1.88128850e+00
  5.44249300e-01  7.86827240e+00  1.88128850e+00  5.44249300e-01  1.68714400e-01
  1.68714400e-01  8.00000000e-01  4.38000000e-02  4.38000000e-02  3.04752490e+03
  4.57369510e+02  1.03948690e+02  2.92101550e+01  9.28666300e+00  3.16392700e+00
  7.86827240e+00  1.88128850e+00  5.44249300e-01  7.86827240e+00  1.88128850e+00
  5.44249300e-01  1.68714400e-01  1.68714400e-01  8.00000000e-01  4.38000000e-02
  4.38000000e-02  4.17351100e+03  6.27457900e+02  1.42902100e+02  4.02343300e+01
  1.28202100e+01  4.39043700e+00  1.16263580e+01  2.71628000e+00  7.72218000e-01
  1.16263580e+01  2.71628000e+00  7.72218000e-01  2.12031300e-01  2.12031300e-01
  8.00000000e-01  6.39000000e-02  6.39000000e-02  3.04752490e+03  4.57369510e+02
  1.03948690e+02  2.92101550e+01  9.28666300e+00  3.16392700e+00  7.86827240e+00
  1.88128850e+00  5.44249300e-01  7.86827240e+00  1.88128850e+00  5.44249300e-01
  1.68714400e-01  1.68714400e-01  8.00000000e-01  4.38000000e-02  4.38000000e-02
  1.87311370e+01  2.82539370e+00  6.40121700e-01  1.61277800e-01  1.87311370e+01
  2.82539370e+00  6.40121700e-01  1.61277800e-01  1.87311370e+01  2.82539370e+00
  6.40121700e-01  1.61277800e-01  1.87311370e+01  2.82539370e+00  6.40121700e-01
  1.61277800e-01  3.04752490e+03  4.57369510e+02  1.03948690e+02  2.92101550e+01
  9.28666300e+00  3.16392700e+00  7.86827240e+00  1.88128850e+00  5.44249300e-01
  7.86827240e+00  1.88128850e+00  5.44249300e-01  1.68714400e-01  1.68714400e-01
  8.00000000e-01  4.38000000e-02  4.38000000e-02  1.87311370e+01  2.82539370e+00
  6.40121700e-01  1.61277800e-01  1.87311370e+01  2.82539370e+00  6.40121700e-01
  1.61277800e-01  1.87311370e+01  2.82539370e+00  6.40121700e-01  1.61277800e-01
  5.48467170e+03  8.25234950e+02  1.88046960e+02  5.29645000e+01  1.68975700e+01
  5.79963530e+00  1.55396160e+01  3.59993360e+00  1.01376180e+00  1.55396160e+01
  3.59993360e+00  1.01376180e+00  2.70005800e-01  2.70005800e-01  8.00000000e-01
  8.45000000e-02  8.45000000e-02  3.04752490e+03  4.57369510e+02  1.03948690e+02
  2.92101550e+01  9.28666300e+00  3.16392700e+00  7.86827240e+00  1.88128850e+00
  5.44249300e-01  7.86827240e+00  1.88128850e+00  5.44249300e-01  1.68714400e-01
  1.68714400e-01  8.00000000e-01  4.38000000e-02  4.38000000e-02  3.04752490e+03
  4.57369510e+02  1.03948690e+02  2.92101550e+01  9.28666300e+00  3.16392700e+00
  7.86827240e+00  1.88128850e+00  5.44249300e-01  7.86827240e+00  1.88128850e+00
  5.44249300e-01  1.68714400e-01  1.68714400e-01  8.00000000e-01  4.38000000e-02
  4.38000000e-02  3.04752490e+03  4.57369510e+02  1.03948690e+02  2.92101550e+01
  9.28666300e+00  3.16392700e+00  7.86827240e+00  1.88128850e+00  5.44249300e-01
  7.86827240e+00  1.88128850e+00  5.44249300e-01  1.68714400e-01  1.68714400e-01
  8.00000000e-01  4.38000000e-02  4.38000000e-02  3.04752490e+03  4.57369510e+02
  1.03948690e+02  2.92101550e+01  9.28666300e+00  3.16392700e+00  7.86827240e+00
  1.88128850e+00  5.44249300e-01  7.86827240e+00  1.88128850e+00  5.44249300e-01
  1.68714400e-01  1.68714400e-01  8.00000000e-01  4.38000000e-02  4.38000000e-02
  3.04752490e+03  4.57369510e+02  1.03948690e+02  2.92101550e+01  9.28666300e+00
  3.16392700e+00  7.86827240e+00  1.88128850e+00  5.44249300e-01  7.86827240e+00
  1.88128850e+00  5.44249300e-01  1.68714400e-01  1.68714400e-01  8.00000000e-01
  4.38000000e-02  4.38000000e-02  3.04752490e+03  4.57369510e+02  1.03948690e+02
  2.92101550e+01  9.28666300e+00  3.16392700e+00  7.86827240e+00  1.88128850e+00
  5.44249300e-01  7.86827240e+00  1.88128850e+00  5.44249300e-01  1.68714400e-01
  1.68714400e-01  8.00000000e-01  4.38000000e-02  4.38000000e-02  1.87311370e+01
  2.82539370e+00  6.40121700e-01  1.61277800e-01  1.87311370e+01  2.82539370e+00
  6.40121700e-01  1.61277800e-01  1.87311370e+01  2.82539370e+00  6.40121700e-01
  1.61277800e-01  1.87311370e+01  2.82539370e+00  6.40121700e-01  1.61277800e-01
  2.51801000e+04  3.78035000e+03  8.60474000e+02  2.42145000e+02  7.73349000e+01
  2.62470000e+01  4.91765000e+02  1.16984000e+02  3.74153000e+01  1.37834000e+01
  5.45215000e+00  2.22588000e+00  4.91765000e+02  1.16984000e+02  3.74153000e+01
  1.37834000e+01  5.45215000e+00  2.22588000e+00  3.18649000e+00  1.14427000e+00
  4.20377000e-01  3.18649000e+00  1.14427000e+00  4.20377000e-01  1.42657000e-01
  1.42657000e-01  7.50000000e-01  4.83000000e-02  4.83000000e-02
Contraction coefficients                   R   N=         379
  1.83470016e-03  1.40373012e-02  6.88426061e-02  2.32184421e-01  4.67941342e-01
  3.62312032e-01 -1.19332409e-01 -1.60854212e-01  1.14345648e+00  6.89990956e-02
  3.16423980e-01  7.44308252e-01  1.00000000e+00  1.00000000e+00  1.00000000e+00
  1.00000000e+00  1.00000000e+00  1.83470016e-03  1.40373012e-02  6.88426061e-02
  2.32184421e-01  4.67941342e-01  3.62312032e-01 -1.19332409e-01 -1.60854212e-01
  1.14345648e+00  6.89990956e-02  3.16423980e-01  7.44308252e-01  1.00000000e+00
  1.00000000e+00  1.00000000e+00  1.00000000e+00  1.00000000e+00  1.83470016e-03
  1.40373012e-02  6.88426061e-02  2.32184421e-01  4.67941342e-01  3.62312032e-01
 -1.19332409e-01 -1.60854212e-01  1.14345648e+00  6.89990956e-02  3.16423980e-01
  7.44308252e-01  1.00000000e+00  1.00000000e+00  1.00000000e+00  1.00000000e+00
  1.00000000e+00  1.83470016e-03  1.40373012e-02  6.88426061e-02  2.32184421e-01
  4.67941342e-01  3.62312032e-01 -1.19332409e-01 -1.60854212e-01  1.14345648e+00
  6.89990956e-02  3.16423980e-01  7.44308252e-01  1.00000000e+00  1.00000000e+00
  1.00000000e+00  1.00000000e+00  1.00000000e+00  1.83479944e-03  1.39949958e-02
  6.85869792e-02  2.32240930e-01  4.69069858e-01  3.60454891e-01 -1.14961023e-01
 -1.69118034e-01  1.14585223e+00  6.75800232e-02  3.23907111e-01  7.40895255e-01
  1.00000000e+00  1.00000000e+00  1.00000000e+00  1.00000000e+00  1.00000000e+00
  1.83470016e-03  1.40373012e-02  6.88426061e-02  2.32184421e-01  4.67941342e-01
  3.62312032e-01 -1.19332409e-01 -1.60854212e-01  1.14345648e+00  6.89990956e-02
  3.16423980e-01  7.44308252e-01  1.00000000e+00  1.00000000e+00  1.00000000e+00
  1.00000000e+00  1.00000000e+00  1.83470016e-03  1.40373012e-02  6.88426061e-02
  2.32184421e-01  4.67941342e-01  3.62312032e-01 -1.19332409e-01 -1.60854212e-01
  1.14345648e+00  6.89990956e-02  3.16423980e-01  7.44308252e-01  1.00000000e+00
  1.00000000e+00  1.00000000e+00  1.00000000e+00  1.00000000e+00  1.83470016e-03
  1.40373012e-02  6.88426061e-02  2.32184421e-01  4.67941342e-01  3.62312032e-01
 -1.19332409e-01 -1.60854212e-01  1.14345648e+00  6.89990956e-02  3.16423980e-01
  7.44308252e-01  1.00000000e+00  1.00000000e+00  1.00000000e+00  1.00000000e+00
  1.00000000e+00  1.83479944e-03  1.39949958e-02  6.85869792e-02  2.32240930e-01
  4.69069858e-01  3.60454891e-01 -1.14961023e-01 -1.69118034e-01  1.14585223e+00
  6.75800232e-02  3.23907111e-01  7.40895255e-01  1.00000000e+00  1.00000000e+00
  1.00000000e+00  1.00000000e+00  1.00000000e+00  1.83470016e-03  1.40373012e-02
  6.88426061e-02  2.32184421e-01  4.67941342e-01  3.62312032e-01 -1.19332409e-01
 -1.60854212e-01  1.14345648e+00  6.89990956e-02  3.16423980e-01  7.44308252e-01
  1.00000000e+00  1.00000000e+00  1.00000000e+00  1.00000000e+00  1.00000000e+00
  3.34945995e-02  2.34726947e-01  8.13757318e-01  1.00000000e+00  3.34945995e-02
  2.34726947e-01  8.13757318e-01  1.00000000e+00  3.34945995e-02  2.34726947e-01
  8.13757318e-01  1.00000000e+00  3.34945995e-02  2.34726947e-01  8.13757318e-01
  1.00000000e+00  1.83470016e-03  1.40373012e-02  6.88426061e-02  2.32184421e-01
  4.67941342e-01  3.62312032e-01 -1.19332409e-01 -1.60854212e-01  1.14345648e+00
  6.89990956e-02  3.16423980e-01  7.44308252e-01  1.00000000e+00  1.00000000e+00
  1.00000000e+00  1.00000000e+00  1.00000000e+00  3.34945995e-02  2.34726947e-01
  8.13757318e-01  1.00000000e+00  3.34945995e-02  2.34726947e-01  8.13757318e-01
  1.00000000e+00  3.34945995e-02  2.34726947e-01  8.13757318e-01  1.00000000e+00
  1.83109981e-03  1.39500985e-02  6.84450927e-02  2.32714275e-01  4.70192950e-01
  3.58520862e-01 -1.10777504e-01 -1.48026305e-01  1.13076704e+00  7.08742995e-02
  3.39752798e-01  7.27158595e-01  1.00000000e+00  1.00000000e+00  1.00000000e+00
  1.00000000e+00  1.00000000e+00  1.83470016e-03  1.40373012e-02  6.88426061e-02
  2.32184421e-01  4.67941342e-01  3.62312032e-01 -1.19332409e-01 -1.60854212e-01
  1.14345648e+00  6.89990956e-02  3.16423980e-01  7.44308252e-01  1.00000000e+00
  1.00000000e+00  1.00000000e+00  1.00000000e+00  1.00000000e+00  1.83470016e-03
  1.40373012e-02  6.88426061e-02  2.32184421e-01  4.67941342e-01  3.62312032e-01
 -1.19332409e-01 -1.60854212e-01  1.14345648e+00  6.89990956e-02  3.16423980e-01
  7.44308252e-01  1.00000000e+00  1.00000000e+00  1.00000000e+00  1.00000000e+00
  1.00000000e+00  1.83470016e-03  1.40373012e-02  6.88426061e-02  2.32184421e-01
  4.67941342e-01  3.62312032e-01 -1.19332409e-01 -1.60854212e-01  1.14345648e+00
  6.89990956e-02  3.16423980e-01  7.44308252e-01  1.00000000e+00  1.00000000e+00
  1.00000000e+00  1.00000000e+00  1.00000000e+00  1.83470016e-03  1.40373012e-02
  6.88426061e-02  2.32184421e-01  4.67941342e-01  3.62312032e-01 -1.19332409e-01
 -1.60854212e-01  1.14345648e+00  6.89990956e-02  3.16423980e-01  7.44308252e-01
  1.00000000e+00  1.00000000e+00  1.00000000e+00  1.00000000e+00  1.00000000e+00
  1.83470016e-03  1.40373012e-02  6.88426061e-02  2.32184421e-01  4.67941342e-01
  3.62312032e-01 -1.19332409e-01 -1.60854212e-01  1.14345648e+00  6.89990956e-02
  3.16423980e-01  7.44308252e-01  1.00000000e+00  1.00000000e+00  1.00000000e+00
  1.00000000e+00  1.00000000e+00  1.83470016e-03  1.40373012e-02  6.88426061e-02
  2.32184421e-01  4.67941342e-01  3.62312032e-01 -1.19332409e-01 -1.60854212e-01
  1.14345648e+00  6.89990956e-02  3.16423980e-01  7.44308252e-01  1.00000000e+00
  1.00000000e+00  1.00000000e+00  1.00000000e+00  1.00000000e+00  3.34945995e-02
  2.34726947e-01  8.13757318e-01  1.00000000e+00  3.34945995e-02  2.34726947e-01
  8.13757318e-01  1.00000000e+00  3.34945995e-02  2.34726947e-01  8.13757318e-01
  1.00000000e+00  3.34945995e-02  2.34726947e-01  8.13757318e-01  1.00000000e+00
  1.83300031e-03  1.40340024e-02  6.90970118e-02  2.37452040e-01  4.83034082e-01
  3.39856058e-01 -2.29740199e-03 -3.07140266e-02 -1.12528097e-01  4.50160390e-02
  5.89353510e-01  4.65206403e-01  3.98940055e-03  3.03180042e-02  1.29880018e-01
  3.27951045e-01  4.53527062e-01  2.52154035e-01 -2.51831288e-01  6.15893150e-02
  1.06018542e+00 -1.42990127e-02  3.23572288e-01  7.43507661e-01  1.00000000e+00
  1.00000000e+00  1.00000000e+00  1.00000000e+00  1.00000000e+00
Coordinates of each shell                  R   N=         528
  5.19386246e+00  2.76828642e+00  2.78985950e+00  5.19386246e+00  2.76828642e+00
  2.78985950e+00  5.19386246e+00  2.76828642e+00  2.78985950e+00  5.19386246e+00
  2.76828642e+00  2.78985950e+00  5.19386246e+00  2.76828642e+00  2.78985950e+00
  5.19386246e+00  2.76828642e+00  2.78985950e+00  5.19386246e+00  2.76828642e+00
  2.78985950e+00  5.19386246e+00  2.76828642e+00  2.78985950e+00  3.17691375e+00
  2.35649687e+00  1.10960673e+00  3.17691375e+00  2.35649687e+00  1.10960673e+00
  3.17691375e+00  2.35649687e+00  1.10960673e+00  3.17691375e+00  2.35649687e+00
  1.10960673e+00  3.17691375e+00  2.35649687e+00  1.10960673e+00  3.17691375e+00
  2.35649687e+00  1.10960673e+00  3.17691375e+00  2.35649687e+00  1.10960673e+00
  3.17691375e+00  2.35649687e+00  1.10960673e+00  7.11893628e+00  4.42459240e+00
  2.13717725e+00  7.11893628e+00  4.42459240e+00  2.13717725e+00  7.11893628e+00
  4.42459240e+00  2.13717725e+00  7.11893628e+00  4.42459240e+00  2.13717725e+00
  7.11893628e+00  4.42459240e+00  2.13717725e+00  7.11893628e+00  4.42459240e+00
  2.13717725e+00  7.11893628e+00  4.42459240e+00  2.13717725e+00  7.11893628e+00
  4.42459240e+00  2.13717725e+00  7.04537967e+00  5.68771473e+00 -2.05059270e-01
  7.04537967e+00  5.68771473e+00 -2.05059270e-01  7.04537967e+00  5.68771473e+00
 -2.05059270e-01  7.04537967e+00  5.68771473e+00 -2.05059270e-01  7.04537967e+00
  5.68771473e+00 -2.05059270e-01  7.04537967e+00  5.68771473e+00 -2.05059270e-01
  7.04537967e+00  5.68771473e+00 -2.05059270e-01  7.04537967e+00  5.68771473e+00
 -2.05059270e-01  1.13855506e+00  3.26597011e+00 -2.95266172e+00  1.13855506e+00
  3.26597011e+00 -2.95266172e+00  1.13855506e+00  3.26597011e+00 -2.95266172e+00
  1.13855506e+00  3.26597011e+00 -2.95266172e+00  1.13855506e+00  3.26597011e+00
 -2.95266172e+00  1.13855506e+00  3.26597011e+00 -2.95266172e+00  1.13855506e+00
  3.26597011e+00 -2.95266172e+00  1.13855506e+00  3.26597011e+00 -2.95266172e+00
  3.09273542e+00  3.61751559e+00 -1.24132377e+00  3.09273542e+00  3.61751559e+00
 -1.24132377e+00  3.09273542e+00  3.61751559e+00 -1.24132377e+00  3.09273542e+00
  3.61751559e+00 -1.24132377e+00  3.09273542e+00  3.61751559e+00 -1.24132377e+00
  3.09273542e+00  3.61751559e+00 -1.24132377e+00  3.09273542e+00  3.61751559e+00
 -1.24132377e+00  3.09273542e+00  3.61751559e+00 -1.24132377e+00  5.06318882e+00
  5.29481856e+00 -1.87613971e+00  5.06318882e+00  5.29481856e+00 -1.87613971e+00
  5.06318882e+00  5.29481856e+00 -1.87613971e+00  5.06318882e+00  5.29481856e+00
 -1.87613971e+00  5.06318882e+00  5.29481856e+00 -1.87613971e+00  5.06318882e+00
  5.29481856e+00 -1.87613971e+00  5.06318882e+00  5.29481856e+00 -1.87613971e+00
  5.06318882e+00  5.29481856e+00 -1.87613971e+00 -6.72764528e-01  1.72530558e+00
 -2.37486593e+00 -6.72764528e-01  1.72530558e+00 -2.37486593e+00 -6.72764528e-01
  1.72530558e+00 -2.37486593e+00 -6.72764528e-01  1.72530558e+00 -2.37486593e+00
 -6.72764528e-01  1.72530558e+00 -2.37486593e+00 -6.72764528e-01  1.72530558e+00
 -2.37486593e+00 -6.72764528e-01  1.72530558e+00 -2.37486593e+00 -6.72764528e-01
  1.72530558e+00 -2.37486593e+00 -7.71333765e-01  3.97769885e-01 -9.25883327e-02
 -7.71333765e-01  3.97769885e-01 -9.25883327e-02 -7.71333765e-01  3.97769885e-01
 -9.25883327e-02 -7.71333765e-01  3.97769885e-01 -9.25883327e-02 -7.71333765e-01
  3.97769885e-01 -9.25883327e-02 -7.71333765e-01  3.97769885e-01 -9.25883327e-02
 -7.71333765e-01  3.97769885e-01 -9.25883327e-02 -7.71333765e-01  3.97769885e-01
 -9.25883327e-02  1.13649053e+00  6.15216931e-01  1.78326152e+00  1.13649053e+00
  6.15216931e-01  1.78326152e+00  1.13649053e+00  6.15216931e-01  1.78326152e+00
  1.13649053e+00  6.15216931e-01  1.78326152e+00  1.13649053e+00  6.15216931e-01
  1.78326152e+00  1.13649053e+00  6.15216931e-01  1.78326152e+00  1.13649053e+00
  6.15216931e-01  1.78326152e+00  1.13649053e+00  6.15216931e-01  1.78326152e+00
  4.97855057e+00  6.25205972e+00 -3.68925284e+00  4.97855057e+00  6.25205972e+00
 -3.68925284e+00  8.55804542e+00  6.98325461e+00 -7.09246676e-01  8.55804542e+00
  6.98325461e+00 -7.09246676e-01  8.68172958e+00  4.74768312e+00  3.42903930e+00
  8.68172958e+00  4.74768312e+00  3.42903930e+00  5.19868155e+00  1.76652598e+00
  4.58015626e+00  5.19868155e+00  1.76652598e+00  4.58015626e+00 -2.78992984e+00
  1.33185002e+00 -4.23053767e+00 -2.78992984e+00  1.33185002e+00 -4.23053767e+00
 -2.78992984e+00  1.33185002e+00 -4.23053767e+00 -2.78992984e+00  1.33185002e+00
 -4.23053767e+00 -2.78992984e+00  1.33185002e+00 -4.23053767e+00 -2.78992984e+00
  1.33185002e+00 -4.23053767e+00 -2.78992984e+00  1.33185002e+00 -4.23053767e+00
 -2.78992984e+00  1.33185002e+00 -4.23053767e+00 -2.42524800e+00  2.52619935e+00
 -5.87066426e+00 -2.42524800e+00  2.52619935e+00 -5.87066426e+00 -4.62630348e+00
  1.83147579e+00 -3.41479624e+00 -4.62630348e+00  1.83147579e+00 -3.41479624e+00
 -2.89982395e+00 -6.43603271e-01 -4.84203850e+00 -2.89982395e+00 -6.43603271e-01
 -4.84203850e+00  9.84941183e-01 -5.82511862e-01  3.75770818e+00  9.84941183e-01
 -5.82511862e-01  3.75770818e+00  9.84941183e-01 -5.82511862e-01  3.75770818e+00
  9.84941183e-01 -5.82511862e-01  3.75770818e+00  9.84941183e-01 -5.82511862e-01
  3.75770818e+00  9.84941183e-01 -5.82511862e-01  3.75770818e+00  9.84941183e-01
 -5.82511862e-01  3.75770818e+00  9.84941183e-01 -5.82511862e-01  3.75770818e+00
 -2.82440480e+00 -1.29426163e+00  4.71161424e-01 -2.82440480e+00 -1.29426163e+00
  4.71161424e-01 -2.82440480e+00 -1.29426163e+00  4.71161424e-01 -2.82440480e+00
 -1.29426163e+00  4.71161424e-01 -2.82440480e+00 -1.29426163e+00  4.71161424e-01
 -2.82440480e+00 -1.29426163e+00  4.71161424e-01 -2.82440480e+00 -1.29426163e+00
  4.71161424e-01 -2.82440480e+00 -1.29426163e+00  4.71161424e-01 -2.74295203e+00
 -3.84014109e+00 -2.48766721e-01 -2.74295203e+00 -3.84014109e+00 -2.48766721e-01
 -2.74295203e+00 -3.84014109e+00 -2.48766721e-01 -2.74295203e+00 -3.84014109e+00
 -2.48766721e-01 -2.74295203e+00 -3.84014109e+00 -2.48766721e-01 -2.74295203e+00
 -3.84014109e+00 -2.48766721e-01 -2.74295203e+00 -3.84014109e+00 -2.48766721e-01
 -2.74295203e+00 -3.84014109e+00 -2.48766721e-01 -4.73815460e+00 -5.46422356e+00
  3.35402230e-01 -4.73815460e+00 -5.46422356e+00  3.35402230e-01 -4.73815460e+00
 -5.46422356e+00  3.35402230e-01 -4.73815460e+00 -5.46422356e+00  3.35402230e-01
 -4.73815460e+00 -5.46422356e+00  3.35402230e-01 -4.73815460e+00 -5.46422356e+00
  3.35402230e-01 -4.73815460e+00 -5.46422356e+00  3.35402230e-01 -4.73815460e+00