Generated by Psi4
     FORCE                           RHF                       TESTBAS
Number of atoms                            I               38
Charge                                     I                0
Multiplicity                               I                1
Number of electrons                        I              126
Number of alpha electrons                  I               63
Number of beta electrons                   I               63
Number of basis functions                  I              365
Number of independent functions            I              365
Atomic numbers                             I   N=          38
           6           6           7           6           1           1
           1           6           1           1           6           1
           1           6           6           1           1           1
           1           6           1           6           1           1
           6           6           1           1           1           6
           6           6           6           1           1           1
           8           1
Nuclear charges                            R   N=          38
  6.00000000e+00  6.00000000e+00  7.00000000e+00  6.00000000e+00  1.00000000e+00
  1.00000000e+00  1.00000000e+00  6.00000000e+00  1.00000000e+00  1.00000000e+00
  6.00000000e+00  1.00000000e+00  1.00000000e+00  6.00000000e+00  6.00000000e+00
  1.00000000e+00  1.00000000e+00  1.00000000e+00  1.00000000e+00  6.00000000e+00
  1.00000000e+00  6.00000000e+00  1.00000000e+00  1.00000000e+00  6.00000000e+00
  6.00000000e+00  1.00000000e+00  1.00000000e+00  1.00000000e+00  6.00000000e+00
  6.00000000e+00  6.00000000e+00  6.00000000e+00  1.00000000e+00  1.00000000e+00
  1.00000000e+00  8.00000000e+00  1.00000000e+00
Current cartesian coordinates              R   N=         114
  2.92934599e+00 -5.20960203e-01  4.49914809e+00  3.91794052e+00  9.20464432e-01
  1.58473091e-01  4.05903471e+00 -1.12809516e+00  2.06412211e+00  6.57666816e+00
 -2.19942383e+00  2.28079795e+00  6.52218877e+00 -3.89609478e+00  3.46760632e+00
  7.96598287e+00 -8.65325205e-01  3.11210731e+00  7.27463301e+00 -2.75846137e+00
  4.13152690e-01  1.26125007e-01  1.71162100e-01  4.18878101e+00  3.96233632e+00
  1.01387295e+00  5.48913328e+00  3.09472161e+00 -2.19324703e+00  5.71190305e+00
 -4.25252105e-01  1.83693205e+00  1.78452982e+00 -4.81615305e-01  1.19888588e+00
  5.88611746e+00 -1.00762113e+00 -1.55704323e+00  4.09004953e+00  2.12145625e+00
  3.05881513e+00  9.96974317e-01  1.91123889e+00  5.15083307e+00 -1.00944860e+00
  2.92256848e+00  3.94870762e+00  2.69267327e+00  3.79538357e+00  5.72694450e+00
 -1.65739104e+00  9.88002195e-01  6.83036270e+00 -2.29559230e-01  8.23284109e-01
  4.55243011e+00 -2.66536634e+00  2.98298822e+00 -2.01999112e-01 -2.34557306e+00
  5.81479113e+00  1.74577871e+00 -1.21745824e-01  1.83243472e-01 -8.18735225e-01
 -2.26298359e+00  4.06181193e+00 -1.92144845e+00 -2.76888365e+00  3.37523217e+00
  1.12336961e+00 -3.89868894e+00 -1.43240662e+00  1.59345504e-01 -3.76206156e-01
 -2.35605167e+00  3.89590036e+00  2.52145457e+00 -1.47708140e+00  5.24679390e+00
  3.82704691e+00 -3.99389443e+00  3.09082945e+00  3.49844523e+00 -3.05314011e+00
  4.94094488e+00  8.77452590e-01 -8.39742507e-01 -2.39141633e+00 -4.13043549e+00
 -3.39584724e+00 -3.02410530e+00 -4.18812273e+00 -4.98163750e+00 -2.06160215e+00
 -2.31100856e+00 -4.00195732e+00 -4.92077437e-01 -4.35882657e-01 -5.30450979e+00
  2.04558462e-01  9.85527923e-01 -4.13535652e+00 -4.25404827e+00 -5.66289794e+00
  4.05464750e-01 -3.15207703e+00 -5.58083415e+00 -7.52666913e+00 -2.59172810e+00
 -2.20841340e+00 -7.98150345e+00 -3.69204710e+00 -3.60098832e+00
Integer atomic weights                     I   N=          38
          12          12          14          12           1           1
           1          12           1           1          12           1
           1          12          12           1           1           1
           1          12           1          12           1           1
          12          12           1           1           1          12
          12          12          12           1           1           1
          15           1
Real atomic weights                        R   N=          38
  1.20000000e+01  1.20000000e+01  1.40030740e+01  1.20000000e+01  1.00782503e+00
  1.00782503e+00  1.00782503e+00  1.20000000e+01  1.00782503e+00  1.00782503e+00
  1.20000000e+01  1.00782503e+00  1.00782503e+00  1.20000000e+01  1.20000000e+01
  1.00782503e+00  1.00782503e+00  1.00782503e+00  1.00782503e+00  1.20000000e+01
  1.00782503e+00  1.20000000e+01  1.00782503e+00  1.00782503e+00  1.20000000e+01
  1.20000000e+01  1.00782503e+00  1.00782503e+00  1.00782503e+00  1.20000000e+01
  1.20000000e+01  1.20000000e+01  1.20000000e+01  1.00782503e+00  1.00782503e+00
  1.00782503e+00  1.59949146e+01  1.00782503e+00
Number of primitive shells                 I              373
Number of contracted shells                I              178
Pure/Cartesian d shells                    I                1
Pure/Cartesian f shells                    I                1
Highest angular momentum                   I                2
Largest degree of contraction              I                6
Shell types                                I   N=         178
           0           0           1           0           1           2
           0           1           0           0           1           0
           1           2           0           1           0           0
           1           0           1           2           0           1
           0           0           1           0           1           2
           0           1           0           0           0           0
           0           0           0           0           1           0
           1           2           0           1           0           0
           0           0           0           0           1           0
           1           2           0           1           0           0
           0           0           0           0           1           0
           1           2           0           1           0           0
           1           0           1           2           0           1
           0           0           0           0           0           0
           0           0           0           0           1           0
           1           2           0           1           0           0
           0           0           1           0           1           2
           0           1           0           0           0           0
           0           0           1           0           1           2
           0           1           0           0           1           0
           1           2           0           1           0           0
           0           0           0           0           0           0
           1           0           1           2           0           1
           0           0           1           0           1           2
           0           1           0           0           1           0
           1           2           0           1           0           0
           1           0           1           2           0           1
           0           0           0           0           0           0
           0           0           1           0           1           2
           0           1           0           0
Number of primitives per shell             I   N=         178
           6           3           3           1           1           1
           1           1           6           3           3           1
           1           1           1           1           6           3
           3           1           1           1           1           1
           6           3           3           1           1           1
           1           1           3           1           3           1
           3           1           6           3           3           1
           1           1           1           1           3           1
           3           1           6           3           3           1
           1           1           1           1           3           1
           3           1           6           3           3           1
           1           1           1           1           6           3
           3           1           1           1           1           1
           3           1           3           1           3           1
           3           1           6           3           3           1
           1           1           1           1           3           1
           6           3           3           1           1           1
           1           1           3           1           3           1
           6           3           3           1           1           1
           1           1           6           3           3           1
           1           1           1           1           3           1
           3           1           3           1           6           3
           3           1           1           1           1           1
           6           3           3           1           1           1
           1           1           6           3           3           1
           1           1           1           1           6           3
           3           1           1           1           1           1
           3           1           3           1           3           1
           6           3           3           1           1           1
           1           1           3           1
Shell to atom map                          I   N=         178
           1           1           1           1           1           1
           1           1           2           2           2           2
           2           2           2           2           3           3
           3           3           3           3           3           3
           4           4           4           4           4           4
           4           4           5           5           6           6
           7           7           8           8           8           8
           8           8           8           8           9           9
          10          10          11          11          11          11
          11          11          11          11          12          12
          13          13          14          14          14          14
          14          14          14          14          15          15
          15          15          15          15          15          15
          16          16          17          17          18          18
          19          19          20          20          20          20
          20          20          20          20          21          21
          22          22          22          22          22          22
          22          22          23          23          24          24
          25          25          25          25          25          25
          25          25          26          26          26          26
          26          26          26          26          27          27
          28          28          29          29          30          30
          30          30          30          30          30          30
          31          31          31          31          31          31
          31          31          32          32          32          32
          32          32          32          32          33          33
          33          33          33          33          33          33
          34          34          35          35          36          36
          37          37          37          37          37          37
          37          37          38          38
Primitive exponents                        R   N=         373
  3.04752490e+03  4.57369510e+02  1.03948690e+02  2.92101550e+01  9.28666300e+00
  3.16392700e+00  7.86827240e+00  1.88128850e+00  5.44249300e-01  7.86827240e+00
  1.88128850e+00  5.44249300e-01  1.68714400e-01  1.68714400e-01  8.00000000e-01
  4.38000000e-02  4.38000000e-02  3.04752490e+03  4.57369510e+02  1.03948690e+02
  2.92101550e+01  9.28666300e+00  3.16392700e+00  7.86827240e+00  1.88128850e+00
  5.44249300e-01  7.86827240e+00  1.88128850e+00  5.44249300e-01  1.68714400e-01
  1.68714400e-01  8.00000000e-01  4.38000000e-02  4.38000000e-02  4.17351100e+03
  6.27457900e+02  1.42902100e+02  4.02343300e+01  1.28202100e+01  4.39043700e+00
  1.16263580e+01  2.71628000e+00  7.72218000e-01  1.16263580e+01  2.71628000e+00
  7.72218000e-01  2.12031300e-01  2.12031300e-01  8.00000000e-01  6.39000000e-02
  6.39000000e-02  3.04752490e+03  4.57369510e+02  1.03948690e+02  2.92101550e+01
  9.28666300e+00  3.16392700e+00  7.86827240e+00  1.88128850e+00  5.44249300e-01
  7.86827240e+00  1.88128850e+00  5.44249300e-01  1.68714400e-01  1.68714400e-01
  8.00000000e-01  4.38000000e-02  4.38000000e-02  1.87311370e+01  2.82539370e+00
  6.40121700e-01  1.61277800e-01  1.87311370e+01  2.82539370e+00  6.40121700e-01
  1.61277800e-01  1.87311370e+01  2.82539370e+00  6.40121700e-01  1.61277800e-01
  3.04752490e+03  4.57369510e+02  1.03948690e+02  2.92101550e+01  9.28666300e+00
  3.16392700e+00  7.86827240e+00  1.88128850e+00  5.44249300e-01  7.86827240e+00
  1.88128850e+00  5.44249300e-01  1.68714400e-01  1.68714400e-01  8.00000000e-01
  4.38000000e-02  4.38000000e-02  1.87311370e+01  2.82539370e+00  6.40121700e-01
  1.61277800e-01  1.87311370e+01  2.82539370e+00  6.40121700e-01  1.61277800e-01
  3.04752490e+03  4.57369510e+02  1.03948690e+02  2.92101550e+01  9.28666300e+00
  3.16392700e+00  7.86827240e+00  1.88128850e+00  5.44249300e-01  7.86827240e+00
  1.88128850e+00  5.44249300e-01  1.68714400e-01  1.68714400e-01  8.00000000e-01
  4.38000000e-02  4.38000000e-02  1.87311370e+01  2.82539370e+00  6.40121700e-01
  1.61277800e-01  1.87311370e+01  2.82539370e+00  6.40121700e-01  1.61277800e-01
  3.04752490e+03  4.57369510e+02  1.03948690e+02  2.92101550e+01  9.28666300e+00
  3.16392700e+00  7.86827240e+00  1.88128850e+00  5.44249300e-01  7.86827240e+00
  1.88128850e+00  5.44249300e-01  1.68714400e-01  1.68714400e-01  8.00000000e-01
  4.38000000e-02  4.38000000e-02  3.04752490e+03  4.57369510e+02  1.03948690e+02
  2.92101550e+01  9.28666300e+00  3.16392700e+00  7.86827240e+00  1.88128850e+00
  5.44249300e-01  7.86827240e+00  1.88128850e+00  5.44249300e-01  1.68714400e-01
  1.68714400e-01  8.00000000e-01  4.38000000e-02  4.38000000e-02  1.87311370e+01
  2.82539370e+00  6.40121700e-01  1.61277800e-01  1.87311370e+01  2.82539370e+00
  6.40121700e-01  1.61277800e-01  1.87311370e+01  2.82539370e+00  6.40121700e-01
  1.61277800e-01  1.87311370e+01  2.82539370e+00  6.40121700e-01  1.61277800e-01
  3.04752490e+03  4.57369510e+02  1.03948690e+02  2.92101550e+01  9.28666300e+00
  3.16392700e+00  7.86827240e+00  1.88128850e+00  5.44249300e-01  7.86827240e+00
  1.88128850e+00  5.44249300e-01  1.68714400e-01  1.68714400e-01  8.00000000e-01
  4.38000000e-02  4.38000000e-02  1.87311370e+01  2.82539370e+00  6.40121700e-01
  1.61277800e-01  3.04752490e+03  4.57369510e+02  1.03948690e+02  2.92101550e+01
  9.28666300e+00  3.16392700e+00  7.86827240e+00  1.88128850e+00  5.44249300e-01
  7.86827240e+00  1.88128850e+00  5.44249300e-01  1.68714400e-01  1.68714400e-01
  8.00000000e-01  4.38000000e-02  4.38000000e-02  1.87311370e+01  2.82539370e+00
  6.40121700e-01  1.61277800e-01  1.87311370e+01  2.82539370e+00  6.40121700e-01
  1.61277800e-01  3.04752490e+03  4.57369510e+02  1.03948690e+02  2.92101550e+01
  9.28666300e+00  3.16392700e+00  7.86827240e+00  1.88128850e+00  5.44249300e-01
  7.86827240e+00  1.88128850e+00  5.44249300e-01  1.68714400e-01  1.68714400e-01
  8.00000000e-01  4.38000000e-02  4.38000000e-02  3.04752490e+03  4.57369510e+02
  1.03948690e+02  2.92101550e+01  9.28666300e+00  3.16392700e+00  7.86827240e+00
  1.88128850e+00  5.44249300e-01  7.86827240e+00  1.88128850e+00  5.44249300e-01
  1.68714400e-01  1.68714400e-01  8.00000000e-01  4.38000000e-02  4.38000000e-02
  1.87311370e+01  2.82539370e+00  6.40121700e-01  1.61277800e-01  1.87311370e+01
  2.82539370e+00  6.40121700e-01  1.61277800e-01  1.87311370e+01  2.82539370e+00
  6.40121700e-01  1.61277800e-01  3.04752490e+03  4.57369510e+02  1.03948690e+02
  2.92101550e+01  9.28666300e+00  3.16392700e+00  7.86827240e+00  1.88128850e+00
  5.44249300e-01  7.86827240e+00  1.88128850e+00  5.44249300e-01  1.68714400e-01
  1.68714400e-01  8.00000000e-01  4.38000000e-02  4.38000000e-02  3.04752490e+03
  4.57369510e+02  1.03948690e+02  2.92101550e+01  9.28666300e+00  3.16392700e+00
  7.86827240e+00  1.88128850e+00  5.44249300e-01  7.86827240e+00  1.88128850e+00
  5.44249300e-01  1.68714400e-01  1.68714400e-01  8.00000000e-01  4.38000000e-02
  4.38000000e-02  3.04752490e+03  4.57369510e+02  1.03948690e+02  2.92101550e+01
  9.28666300e+00  3.16392700e+00  7.86827240e+00  1.88128850e+00  5.44249300e-01
  7.86827240e+00  1.88128850e+00  5.44249300e-01  1.68714400e-01  1.68714400e-01
  8.00000000e-01  4.38000000e-02  4.38000000e-02  3.04752490e+03  4.57369510e+02
  1.03948690e+02  2.92101550e+01  9.28666300e+00  3.16392700e+00  7.86827240e+00
  1.88128850e+00  5.44249300e-01  7.86827240e+00  1.88128850e+00  5.44249300e-01
  1.68714400e-01  1.68714400e-01  8.00000000e-01  4.38000000e-02  4.38000000e-02
  1.87311370e+01  2.82539370e+00  6.40121700e-01  1.61277800e-01  1.87311370e+01
  2.82539370e+00  6.40121700e-01  1.61277800e-01  1.87311370e+01  2.82539370e+00
  6.40121700e-01  1.61277800e-01  5.48467170e+03  8.25234950e+02  1.88046960e+02
  5.29645000e+01  1.68975700e+01  5.79963530e+00  1.55396160e+01  3.59993360e+00
  1.01376180e+00  1.55396160e+01  3.59993360e+00  1.01376180e+00  2.70005800e-01
  2.70005800e-01  8.00000000e-01  8.45000000e-02  8.45000000e-02  1.87311370e+01
  2.82539370e+00  6.40121700e-01  1.61277800e-01
Contraction coefficients                   R   N=         373
  1.83470016e-03  1.40373012e-02  6.88426061e-02  2.32184421e-01  4.67941342e-01
  3.62312032e-01 -1.19332409e-01 -1.60854212e-01  1.14345648e+00  6.89990956e-02
  3.16423980e-01  7.44308252e-01  1.00000000e+00  1.00000000e+00  1.00000000e+00
  1.00000000e+00  1.00000000e+00  1.83470016e-03  1.40373012e-02  6.88426061e-02
  2.32184421e-01  4.67941342e-01  3.62312032e-01 -1.19332409e-01 -1.60854212e-01
  1.14345648e+00  6.89990956e-02  3.16423980e-01  7.44308252e-01  1.00000000e+00
  1.00000000e+00  1.00000000e+00  1.00000000e+00  1.00000000e+00  1.83479944e-03
  1.39949958e-02  6.85869792e-02  2.32240930e-01  4.69069858e-01  3.60454891e-01
 -1.14961023e-01 -1.69118034e-01  1.14585223e+00  6.75800232e-02  3.23907111e-01
  7.40895255e-01  1.00000000e+00  1.00000000e+00  1.00000000e+00  1.00000000e+00
  1.00000000e+00  1.83470016e-03  1.40373012e-02  6.88426061e-02  2.32184421e-01
  4.67941342e-01  3.62312032e-01 -1.19332409e-01 -1.60854212e-01  1.14345648e+00
  6.89990956e-02  3.16423980e-01  7.44308252e-01  1.00000000e+00  1.00000000e+00
  1.00000000e+00  1.00000000e+00  1.00000000e+00  3.34945995e-02  2.34726947e-01
  8.13757318e-01  1.00000000e+00  3.34945995e-02  2.34726947e-01  8.13757318e-01
  1.00000000e+00  3.34945995e-02  2.34726947e-01  8.13757318e-01  1.00000000e+00
  1.83470016e-03  1.40373012e-02  6.88426061e-02  2.32184421e-01  4.67941342e-01
  3.62312032e-01 -1.19332409e-01 -1.60854212e-01  1.14345648e+00  6.89990956e-02
  3.16423980e-01  7.44308252e-01  1.00000000e+00  1.00000000e+00  1.00000000e+00
  1.00000000e+00  1.00000000e+00  3.34945995e-02  2.34726947e-01  8.13757318e-01
  1.00000000e+00  3.34945995e-02  2.34726947e-01  8.13757318e-01  1.00000000e+00
  1.83470016e-03  1.40373012e-02  6.88426061e-02  2.32184421e-01  4.67941342e-01
  3.62312032e-01 -1.19332409e-01 -1.60854212e-01  1.14345648e+00  6.89990956e-02
  3.16423980e-01  7.44308252e-01  1.00000000e+00  1.00000000e+00  1.00000000e+00
  1.00000000e+00  1.00000000e+00  3.34945995e-02  2.34726947e-01  8.13757318e-01
  1.00000000e+00  3.34945995e-02  2.34726947e-01  8.13757318e-01  1.00000000e+00
  1.83470016e-03  1.40373012e-02  6.88426061e-02  2.32184421e-01  4.67941342e-01
  3.62312032e-01 -1.19332409e-01 -1.60854212e-01  1.14345648e+00  6.89990956e-02
  3.16423980e-01  7.44308252e-01  1.00000000e+00  1.00000000e+00  1.00000000e+00
  1.00000000e+00  1.00000000e+00  1.83470016e-03  1.40373012e-02  6.88426061e-02
  2.32184421e-01  4.67941342e-01  3.62312032e-01 -1.19332409e-01 -1.60854212e-01
  1.14345648e+00  6.89990956e-02  3.16423980e-01  7.44308252e-01  1.00000000e+00
  1.00000000e+00  1.00000000e+00  1.00000000e+00  1.00000000e+00  3.34945995e-02
  2.34726947e-01  8.13757318e-01  1.00000000e+00  3.34945995e-02  2.34726947e-01
  8.13757318e-01  1.00000000e+00  3.34945995e-02  2.34726947e-01  8.13757318e-01
  1.00000000e+00  3.34945995e-02  2.34726947e-01  8.13757318e-01  1.00000000e+00
  1.83470016e-03  1.40373012e-02  6.88426061e-02  2.32184421e-01  4.67941342e-01
  3.62312032e-01 -1.19332409e-01 -1.60854212e-01  1.14345648e+00  6.89990956e-02
  3.16423980e-01  7.44308252e-01  1.00000000e+00  1.00000000e+00  1.00000000e+00
  1.00000000e+00  1.00000000e+00  3.34945995e-02  2.34726947e-01  8.13757318e-01
  1.00000000e+00  1.83470016e-03  1.40373012e-02  6.88426061e-02  2.32184421e-01
  4.67941342e-01  3.62312032e-01 -1.19332409e-01 -1.60854212e-01  1.14345648e+00
  6.89990956e-02  3.16423980e-01  7.44308252e-01  1.00000000e+00  1.00000000e+00
  1.00000000e+00  1.00000000e+00  1.00000000e+00  3.34945995e-02  2.34726947e-01
  8.13757318e-01  1.00000000e+00  3.34945995e-02  2.34726947e-01  8.13757318e-01
  1.00000000e+00  1.83470016e-03  1.40373012e-02  6.88426061e-02  2.32184421e-01
  4.67941342e-01  3.62312032e-01 -1.19332409e-01 -1.60854212e-01  1.14345648e+00
  6.89990956e-02  3.16423980e-01  7.44308252e-01  1.00000000e+00  1.00000000e+00
  1.00000000e+00  1.00000000e+00  1.00000000e+00  1.83470016e-03  1.40373012e-02
  6.88426061e-02  2.32184421e-01  4.67941342e-01  3.62312032e-01 -1.19332409e-01
 -1.60854212e-01  1.14345648e+00  6.89990956e-02  3.16423980e-01  7.44308252e-01
  1.00000000e+00  1.00000000e+00  1.00000000e+00  1.00000000e+00  1.00000000e+00
  3.34945995e-02  2.34726947e-01  8.13757318e-01  1.00000000e+00  3.34945995e-02
  2.34726947e-01  8.13757318e-01  1.00000000e+00  3.34945995e-02  2.34726947e-01
  8.13757318e-01  1.00000000e+00  1.83470016e-03  1.40373012e-02  6.88426061e-02
  2.32184421e-01  4.67941342e-01  3.62312032e-01 -1.19332409e-01 -1.60854212e-01
  1.14345648e+00  6.89990956e-02  3.16423980e-01  7.44308252e-01  1.00000000e+00
  1.00000000e+00  1.00000000e+00  1.00000000e+00  1.00000000e+00  1.83470016e-03
  1.40373012e-02  6.88426061e-02  2.32184421e-01  4.67941342e-01  3.62312032e-01
 -1.19332409e-01 -1.60854212e-01  1.14345648e+00  6.89990956e-02  3.16423980e-01
  7.44308252e-01  1.00000000e+00  1.00000000e+00  1.00000000e+00  1.00000000e+00
  1.00000000e+00  1.83470016e-03  1.40373012e-02  6.88426061e-02  2.32184421e-01
  4.67941342e-01  3.62312032e-01 -1.19332409e-01 -1.60854212e-01  1.14345648e+00
  6.89990956e-02  3.16423980e-01  7.44308252e-01  1.00000000e+00  1.00000000e+00
  1.00000000e+00  1.00000000e+00  1.00000000e+00  1.83470016e-03  1.40373012e-02
  6.88426061e-02  2.32184421e-01  4.67941342e-01  3.62312032e-01 -1.19332409e-01
 -1.60854212e-01  1.14345648e+00  6.89990956e-02  3.16423980e-01  7.44308252e-01
  1.00000000e+00  1.00000000e+00  1.00000000e+00  1.00000000e+00  1.00000000e+00
  3.34945995e-02  2.34726947e-01  8.13757318e-01  1.00000000e+00  3.34945995e-02
  2.34726947e-01  8.13757318e-01  1.00000000e+00  3.34945995e-02  2.34726947e-01
  8.13757318e-01  1.00000000e+00  1.83109981e-03  1.39500985e-02  6.84450927e-02
  2.32714275e-01  4.70192950e-01  3.58520862e-01 -1.10777504e-01 -1.48026305e-01
  1.13076704e+00  7.08742995e-02  3.39752798e-01  7.27158595e-01  1.00000000e+00
  1.00000000e+00  1.00000000e+00  1.00000000e+00  1.00000000e+00  3.34945995e-02
  2.34726947e-01  8.13757318e-01  1.00000000e+00
Coordinates of each shell                  R   N=         534
  2.92934599e+00 -5.20960203e-01  4.49914809e+00  2.92934599e+00 -5.20960203e-01
  4.49914809e+00  2.92934599e+00 -5.20960203e-01  4.49914809e+00  2.92934599e+00
 -5.20960203e-01  4.49914809e+00  2.92934599e+00 -5.20960203e-01  4.49914809e+00
  2.92934599e+00 -5.20960203e-01  4.49914809e+00  2.92934599e+00 -5.20960203e-01
  4.49914809e+00  2.92934599e+00 -5.20960203e-01  4.49914809e+00  3.91794052e+00
  9.20464432e-01  1.58473091e-01  3.91794052e+00  9.20464432e-01  1.58473091e-01
  3.91794052e+00  9.20464432e-01  1.58473091e-01  3.91794052e+00  9.20464432e-01
  1.58473091e-01  3.91794052e+00  9.20464432e-01  1.58473091e-01  3.91794052e+00
  9.20464432e-01  1.58473091e-01  3.91794052e+00  9.20464432e-01  1.58473091e-01
  3.91794052e+00  9.20464432e-01  1.58473091e-01  4.05903471e+00 -1.12809516e+00
  2.06412211e+00  4.05903471e+00 -1.12809516e+00  2.06412211e+00  4.05903471e+00
 -1.12809516e+00  2.06412211e+00  4.05903471e+00 -1.12809516e+00  2.06412211e+00
  4.05903471e+00 -1.12809516e+00  2.06412211e+00  4.05903471e+00 -1.12809516e+00
  2.06412211e+00  4.05903471e+00 -1.12809516e+00  2.06412211e+00  4.05903471e+00
 -1.12809516e+00  2.06412211e+00  6.57666816e+00 -2.19942383e+00  2.28079795e+00
  6.57666816e+00 -2.19942383e+00  2.28079795e+00  6.57666816e+00 -2.19942383e+00
  2.28079795e+00  6.57666816e+00 -2.19942383e+00  2.28079795e+00  6.57666816e+00
 -2.19942383e+00  2.28079795e+00  6.57666816e+00 -2.19942383e+00  2.28079795e+00
  6.57666816e+00 -2.19942383e+00  2.28079795e+00  6.57666816e+00 -2.19942383e+00
  2.28079795e+00  6.52218877e+00 -3.89609478e+00  3.46760632e+00  6.52218877e+00
 -3.89609478e+00  3.46760632e+00  7.96598287e+00 -8.65325205e-01  3.11210731e+00
  7.96598287e+00 -8.65325205e-01  3.11210731e+00  7.27463301e+00 -2.75846137e+00
  4.13152690e-01  7.27463301e+00 -2.75846137e+00  4.13152690e-01  1.26125007e-01
  1.71162100e-01  4.18878101e+00  1.26125007e-01  1.71162100e-01  4.18878101e+00
  1.26125007e-01  1.71162100e-01  4.18878101e+00  1.26125007e-01  1.71162100e-01
  4.18878101e+00  1.26125007e-01  1.71162100e-01  4.18878101e+00  1.26125007e-01
  1.71162100e-01  4.18878101e+00  1.26125007e-01  1.71162100e-01  4.18878101e+00
  1.26125007e-01  1.71162100e-01  4.18878101e+00  3.96233632e+00  1.01387295e+00
  5.48913328e+00  3.96233632e+00  1.01387295e+00  5.48913328e+00  3.09472161e+00
 -2.19324703e+00  5.71190305e+00  3.09472161e+00 -2.19324703e+00  5.71190305e+00
 -4.25252105e-01  1.83693205e+00  1.78452982e+00 -4.25252105e-01  1.83693205e+00
  1.78452982e+00 -4.25252105e-01  1.83693205e+00  1.78452982e+00 -4.25252105e-01
  1.83693205e+00  1.78452982e+00 -4.25252105e-01  1.83693205e+00  1.78452982e+00
 -4.25252105e-01  1.83693205e+00  1.78452982e+00 -4.25252105e-01  1.83693205e+00
  1.78452982e+00 -4.25252105e-01  1.83693205e+00  1.78452982e+00 -4.81615305e-01
  1.19888588e+00  5.88611746e+00 -4.81615305e-01  1.19888588e+00  5.88611746e+00
 -1.00762113e+00 -1.55704323e+00  4.09004953e+00 -1.00762113e+00 -1.55704323e+00
  4.09004953e+00  2.12145625e+00  3.05881513e+00  9.96974317e-01  2.12145625e+00
  3.05881513e+00  9.96974317e-01  2.12145625e+00  3.05881513e+00  9.96974317e-01
  2.12145625e+00  3.05881513e+00  9.96974317e-01  2.12145625e+00  3.05881513e+00
  9.96974317e-01  2.12145625e+00  3.05881513e+00  9.96974317e-01  2.12145625e+00
  3.05881513e+00  9.96974317e-01  2.12145625e+00  3.05881513e+00  9.96974317e-01
  1.91123889e+00  5.15083307e+00 -1.00944860e+00  1.91123889e+00  5.15083307e+00
 -1.00944860e+00  1.91123889e+00  5.15083307e+00 -1.00944860e+00  1.91123889e+00
  5.15083307e+00 -1.00944860e+00  1.91123889e+00  5.15083307e+00 -1.00944860e+00
  1.91123889e+00  5.15083307e+00 -1.00944860e+00  1.91123889e+00  5.15083307e+00
 -1.00944860e+00  1.91123889e+00  5.15083307e+00 -1.00944860e+00  2.92256848e+00
  3.94870762e+00  2.69267327e+00  2.92256848e+00  3.94870762e+00  2.69267327e+00
  3.79538357e+00  5.72694450e+00 -1.65739104e+00  3.79538357e+00  5.72694450e+00
 -1.65739104e+00  9.88002195e-01  6.83036270e+00 -2.29559230e-01  9.88002195e-01
  6.83036270e+00 -2.29559230e-01  8.23284109e-01  4.55243011e+00 -2.66536634e+00
  8.23284109e-01  4.55243011e+00 -2.66536634e+00  2.98298822e+00 -2.01999112e-01
 -2.34557306e+00  2.98298822e+00 -2.01999112e-01 -2.34557306e+00  2.98298822e+00
 -2.01999112e-01 -2.34557306e+00  2.98298822e+00 -2.01999112e-01 -2.34557306e+00
  2.98298822e+00 -2.01999112e-01 -2.34557306e+00  2.98298822e+00 -2.01999112e-01
 -2.34557306e+00  2.98298822e+00 -2.01999112e-01 -2.34557306e+00  2.98298822e+00
 -2.01999112e-01 -2.34557306e+00  5.81479113e+00  1.74577871e+00 -1.21745824e-01
  5.81479113e+00  1.74577871e+00 -1.21745824e-01  1.83243472e-01 -8.18735225e-01
 -2.26298359e+00  1.83243472e-01 -8.18735225e-01 -2.26298359e+00  1.83243472e-01
 -8.18735225e-01 -2.26298359e+00  1.83243472e-01 -8.18735225e-01 -2.26298359e+00
  1.83243472e-01 -8.18735225e-01 -2.26298359e+00  1.83243472e-01 -8.18735225e-01
 -2.26298359e+00  1.83243472e-01 -8.18735225e-01 -2.26298359e+00  1.83243472e-01
 -8.18735225e-01 -2.26298359e+00  4.06181193e+00 -1.92144845e+00 -2.76888365e+00
  4.06181193e+00 -1.92144845e+00 -2.76888365e+00  3.37523217e+00  1.12336961e+00
 -3.89868894e+00  3.37523217e+00  1.12336961e+00 -3.89868894e+00 -1.43240662e+00
  1.59345504e-01 -3.76206156e-01 -1.43240662e+00  1.59345504e-01 -3.76206156e-01
 -1.43240662e+00  1.59345504e-01 -3.76206156e-01 -1.43240662e+00  1.59345504e-01
 -3.76206156e-01 -1.43240662e+00  1.59345504e-01 -3.76206156e-01 -1.43240662e+00
  1.59345504e-01 -3.76206156e-01 -1.43240662e+00  1.59345504e-01 -3.76206156e-01
 -1.43240662e+00  1.59345504e-01 -3.76206156e-01 -2.35605167e+00  3.89590036e+00
  2.52145457e+00 -2.35605167e+00  3.89590036e+00  2.52145457e+00 -2.35605167e+00