Generated by Psi4
     FORCE                           RHF                       TESTBAS
Number of atoms                            I               39
Charge                                     I                0
Multiplicity                               I                1
Number of electrons                        I              134
Number of alpha electrons                  I               67
Number of beta electrons                   I               67
Number of basis functions                  I              384
Number of independent functions            I              384
Atomic numbers                             I   N=          39
           7           6           6           6           6           6
           1           1           1           1           8           6
           6           6           6           6           6           1
           1           1           1           1           6           1
           1           1           6           8           6           6
           1           1           1           1           1           1
           1           1           1
Nuclear charges                            R   N=          39
  7.00000000e+00  6.00000000e+00  6.00000000e+00  6.00000000e+00  6.00000000e+00
  6.00000000e+00  1.00000000e+00  1.00000000e+00  1.00000000e+00  1.00000000e+00
  8.00000000e+00  6.00000000e+00  6.00000000e+00  6.00000000e+00  6.00000000e+00
  6.00000000e+00  6.00000000e+00  1.00000000e+00  1.00000000e+00  1.00000000e+00
  1.00000000e+00  1.00000000e+00  6.00000000e+00  1.00000000e+00  1.00000000e+00
  1.00000000e+00  6.00000000e+00  8.00000000e+00  6.00000000e+00  6.00000000e+00
  1.00000000e+00  1.00000000e+00  1.00000000e+00  1.00000000e+00  1.00000000e+00
  1.00000000e+00  1.00000000e+00  1.00000000e+00  1.00000000e+00
Current cartesian coordinates              R   N=         117
 -3.80602775e+00 -4.43327523e+00  2.79089144e+00 -1.69547810e+00 -3.09968518e+00
  3.99708325e+00  3.33059774e-01 -2.39697917e+00  2.05619088e+00 -6.43291664e-01
 -4.55024889e-01  8.97898955e-02 -4.41124387e+00 -3.45137162e+00  2.45734010e-01
 -3.55402491e+00 -7.09846741e-01 -1.30023523e-01 -6.45540553e+00 -3.59299670e+00
 -5.28090769e-02 -3.51579422e+00 -4.65178536e+00 -1.19198652e+00  8.61875197e-01
 -4.12197840e+00  1.04222779e+00  2.04663870e+00 -1.72324273e+00  2.98507416e+00
  2.50445509e-01 -1.17786632e+00 -2.45117445e+00 -2.28214687e-01  4.08168806e+00
 -1.37858709e+00  4.03455091e-02  2.31239765e+00  5.81602717e-01  7.66335894e-01
  3.19380918e+00  2.96954837e+00  1.23245777e+00  5.76193779e+00  3.38421117e+00
  9.82245135e-01  7.49830643e+00  1.41499765e+00  2.48717609e-01  6.64361184e+00
 -9.74326915e-01  4.71121859e-02  7.97239934e+00 -2.52861863e+00  9.89610516e-01
  1.88783838e+00  4.53455341e+00  1.80621010e+00  6.39595767e+00  5.25235877e+00
  1.35648853e+00  9.49246526e+00  1.73498263e+00 -7.96852266e-01  3.44365350e+00
 -3.24543327e+00 -5.97684585e+00 -4.61290028e+00  4.46796212e+00 -7.43985577e+00
 -5.79973941e+00  3.61086478e+00 -6.82644393e+00 -2.75447432e+00  4.94016647e+00
 -5.39876146e+00 -5.50740632e+00  6.24555495e+00  2.76409354e+00 -1.29424131e+00
 -2.93186136e+00  4.39852806e+00 -8.80930195e-01 -1.37870875e+00  3.22776840e+00
 -2.01051294e+00 -5.67245780e+00  6.03069001e+00 -2.24570992e+00 -6.32971274e+00
  2.29847422e+00 -5.83223213e-01 -6.85876321e+00  2.21521009e+00 -3.78315656e+00
 -6.04359000e+00  7.02831063e+00 -4.65460678e-01 -5.99298619e+00  6.25572301e+00
 -2.75484282e+00 -8.32415603e+00  6.94926178e+00 -3.69871875e+00 -5.17886389e+00
 -4.14925572e+00  7.83413055e-03 -1.97863827e+00 -4.43312715e+00  5.03892108e-01
  1.29992383e+00 -8.72780148e-01 -4.34272664e+00  5.43937585e+00 -2.34862099e+00
 -1.37934313e+00  5.00114797e+00
Integer atomic weights                     I   N=          39
          14          12          12          12          12          12
           1           1           1           1          15          12
          12          12          12          12          12           1
           1           1           1           1          12           1
           1           1          12          15          12          12
           1           1           1           1           1           1
           1           1           1
Real atomic weights                        R   N=          39
  1.40030740e+01  1.20000000e+01  1.20000000e+01  1.20000000e+01  1.20000000e+01
  1.20000000e+01  1.00782503e+00  1.00782503e+00  1.00782503e+00  1.00782503e+00
  1.59949146e+01  1.20000000e+01  1.20000000e+01  1.20000000e+01  1.20000000e+01
  1.20000000e+01  1.20000000e+01  1.00782503e+00  1.00782503e+00  1.00782503e+00
  1.00782503e+00  1.00782503e+00  1.20000000e+01  1.00782503e+00  1.00782503e+00
  1.00782503e+00  1.20000000e+01  1.59949146e+01  1.20000000e+01  1.20000000e+01
  1.00782503e+00  1.00782503e+00  1.00782503e+00  1.00782503e+00  1.00782503e+00
  1.00782503e+00  1.00782503e+00  1.00782503e+00  1.00782503e+00
Number of primitive shells                 I              390
Number of contracted shells                I              186
Pure/Cartesian d shells                    I                1
Pure/Cartesian f shells                    I                1
Highest angular momentum                   I                2
Largest degree of contraction              I                6
Shell types                                I   N=         186
           0           0           1           0           1           2
           0           1           0           0           1           0
           1           2           0           1           0           0
           1           0           1           2           0           1
           0           0           1           0           1           2
           0           1           0           0           1           0
           1           2           0           1           0           0
           1           0           1           2           0           1
           0           0           0           0           0           0
           0           0           0           0           1           0
           1           2           0           1           0           0
           1           0           1           2           0           1
           0           0           1           0           1           2
           0           1           0           0           1           0
           1           2           0           1           0           0
           1           0           1           2           0           1
           0           0           1           0           1           2
           0           1           0           0           1           0
           1           2           0           1           0           0
           0           0           0           0           0           0
           0           0           0           0           1           0
           1           2           0           1           0           0
           0           0           0           0           0           0
           1           0           1           2           0           1
           0           0           1           0           1           2
           0           1           0           0           1           0
           1           2           0           1           0           0
           1           0           1           2           0           1
           0           0           0           0           0           0
           0           0           0           0           0           0
           0           0           0           0           0           0
Number of primitives per shell             I   N=         186
           6           3           3           1           1           1
           1           1           6           3           3           1
           1           1           1           1           6           3
           3           1           1           1           1           1
           6           3           3           1           1           1
           1           1           6           3           3           1
           1           1           1           1           6           3
           3           1           1           1           1           1
           3           1           3           1           3           1
           3           1           6           3           3           1
           1           1           1           1           6           3
           3           1           1           1           1           1
           6           3           3           1           1           1
           1           1           6           3           3           1
           1           1           1           1           6           3
           3           1           1           1           1           1
           6           3           3           1           1           1
           1           1           6           3           3           1
           1           1           1           1           3           1
           3           1           3           1           3           1
           3           1           6           3           3           1
           1           1           1           1           3           1
           3           1           3           1           6           3
           3           1           1           1           1           1
           6           3           3           1           1           1
           1           1           6           3           3           1
           1           1           1           1           6           3
           3           1           1           1           1           1
           3           1           3           1           3           1
           3           1           3           1           3           1
           3           1           3           1           3           1
Shell to atom map                          I   N=         186
           1           1           1           1           1           1
           1           1           2           2           2           2
           2           2           2           2           3           3
           3           3           3           3           3           3
           4           4           4           4           4           4
           4           4           5           5           5           5
           5           5           5           5           6           6
           6           6           6           6           6           6
           7           7           8           8           9           9
          10          10          11          11          11          11
          11          11          11          11          12          12
          12          12          12          12          12          12
          13          13          13          13          13          13
          13          13          14          14          14          14
          14          14          14          14          15          15
          15          15          15          15          15          15
          16          16          16          16          16          16
          16          16          17          17          17          17
          17          17          17          17          18          18
          19          19          20          20          21          21
          22          22          23          23          23          23
          23          23          23          23          24          24
          25          25          26          26          27          27
          27          27          27          27          27          27
          28          28          28          28          28          28
          28          28          29          29          29          29
          29          29          29          29          30          30
          30          30          30          30          30          30
          31          31          32          32          33          33
          34          34          35          35          36          36
          37          37          38          38          39          39
Primitive exponents                        R   N=         390
  4.17351100e+03  6.27457900e+02  1.42902100e+02  4.02343300e+01  1.28202100e+01
  4.39043700e+00  1.16263580e+01  2.71628000e+00  7.72218000e-01  1.16263580e+01
  2.71628000e+00  7.72218000e-01  2.12031300e-01  2.12031300e-01  8.00000000e-01
  6.39000000e-02  6.39000000e-02  3.04752490e+03  4.57369510e+02  1.03948690e+02
  2.92101550e+01  9.28666300e+00  3.16392700e+00  7.86827240e+00  1.88128850e+00
  5.44249300e-01  7.86827240e+00  1.88128850e+00  5.44249300e-01  1.68714400e-01
  1.68714400e-01  8.00000000e-01  4.38000000e-02  4.38000000e-02  3.04752490e+03
  4.57369510e+02  1.03948690e+02  2.92101550e+01  9.28666300e+00  3.16392700e+00
  7.86827240e+00  1.88128850e+00  5.44249300e-01  7.86827240e+00  1.88128850e+00
  5.44249300e-01  1.68714400e-01  1.68714400e-01  8.00000000e-01  4.38000000e-02
  4.38000000e-02  3.04752490e+03  4.57369510e+02  1.03948690e+02  2.92101550e+01
  9.28666300e+00  3.16392700e+00  7.86827240e+00  1.88128850e+00  5.44249300e-01
  7.86827240e+00  1.88128850e+00  5.44249300e-01  1.68714400e-01  1.68714400e-01
  8.00000000e-01  4.38000000e-02  4.38000000e-02  3.04752490e+03  4.57369510e+02
  1.03948690e+02  2.92101550e+01  9.28666300e+00  3.16392700e+00  7.86827240e+00
  1.88128850e+00  5.44249300e-01  7.86827240e+00  1.88128850e+00  5.44249300e-01
  1.68714400e-01  1.68714400e-01  8.00000000e-01  4.38000000e-02  4.38000000e-02
  3.04752490e+03  4.57369510e+02  1.03948690e+02  2.92101550e+01  9.28666300e+00
  3.16392700e+00  7.86827240e+00  1.88128850e+00  5.44249300e-01  7.86827240e+00
  1.88128850e+00  5.44249300e-01  1.68714400e-01  1.68714400e-01  8.00000000e-01
  4.38000000e-02  4.38000000e-02  1.87311370e+01  2.82539370e+00  6.40121700e-01
  1.61277800e-01  1.87311370e+01  2.82539370e+00  6.40121700e-01  1.61277800e-01
  1.87311370e+01  2.82539370e+00  6.40121700e-01  1.61277800e-01  1.87311370e+01
  2.82539370e+00  6.40121700e-01  1.61277800e-01  5.48467170e+03  8.25234950e+02
  1.88046960e+02  5.29645000e+01  1.68975700e+01  5.79963530e+00  1.55396160e+01
  3.59993360e+00  1.01376180e+00  1.55396160e+01  3.59993360e+00  1.01376180e+00
  2.70005800e-01  2.70005800e-01  8.00000000e-01  8.45000000e-02  8.45000000e-02
  3.04752490e+03  4.57369510e+02  1.03948690e+02  2.92101550e+01  9.28666300e+00
  3.16392700e+00  7.86827240e+00  1.88128850e+00  5.44249300e-01  7.86827240e+00
  1.88128850e+00  5.44249300e-01  1.68714400e-01  1.68714400e-01  8.00000000e-01
  4.38000000e-02  4.38000000e-02  3.04752490e+03  4.57369510e+02  1.03948690e+02
  2.92101550e+01  9.28666300e+00  3.16392700e+00  7.86827240e+00  1.88128850e+00
  5.44249300e-01  7.86827240e+00  1.88128850e+00  5.44249300e-01  1.68714400e-01
  1.68714400e-01  8.00000000e-01  4.38000000e-02  4.38000000e-02  3.04752490e+03
  4.57369510e+02  1.03948690e+02  2.92101550e+01  9.28666300e+00  3.16392700e+00
  7.86827240e+00  1.88128850e+00  5.44249300e-01  7.86827240e+00  1.88128850e+00
  5.44249300e-01  1.68714400e-01  1.68714400e-01  8.00000000e-01  4.38000000e-02
  4.38000000e-02  3.04752490e+03  4.57369510e+02  1.03948690e+02  2.92101550e+01
  9.28666300e+00  3.16392700e+00  7.86827240e+00  1.88128850e+00  5.44249300e-01
  7.86827240e+00  1.88128850e+00  5.44249300e-01  1.68714400e-01  1.68714400e-01
  8.00000000e-01  4.38000000e-02  4.38000000e-02  3.04752490e+03  4.57369510e+02
  1.03948690e+02  2.92101550e+01  9.28666300e+00  3.16392700e+00  7.86827240e+00
  1.88128850e+00  5.44249300e-01  7.86827240e+00  1.88128850e+00  5.44249300e-01
  1.68714400e-01  1.68714400e-01  8.00000000e-01  4.38000000e-02  4.38000000e-02
  3.04752490e+03  4.57369510e+02  1.03948690e+02  2.92101550e+01  9.28666300e+00
  3.16392700e+00  7.86827240e+00  1.88128850e+00  5.44249300e-01  7.86827240e+00
  1.88128850e+00  5.44249300e-01  1.68714400e-01  1.68714400e-01  8.00000000e-01
  4.38000000e-02  4.38000000e-02  1.87311370e+01  2.82539370e+00  6.40121700e-01
  1.61277800e-01  1.87311370e+01  2.82539370e+00  6.40121700e-01  1.61277800e-01
  1.87311370e+01  2.82539370e+00  6.40121700e-01  1.61277800e-01  1.87311370e+01
  2.82539370e+00  6.40121700e-01  1.61277800e-01  1.87311370e+01  2.82539370e+00
  6.40121700e-01  1.61277800e-01  3.04752490e+03  4.57369510e+02  1.03948690e+02
  2.92101550e+01  9.28666300e+00  3.16392700e+00  7.86827240e+00  1.88128850e+00
  5.44249300e-01  7.86827240e+00  1.88128850e+00  5.44249300e-01  1.68714400e-01
  1.68714400e-01  8.00000000e-01  4.38000000e-02  4.38000000e-02  1.87311370e+01
  2.82539370e+00  6.40121700e-01  1.61277800e-01  1.87311370e+01  2.82539370e+00
  6.40121700e-01  1.61277800e-01  1.87311370e+01  2.82539370e+00  6.40121700e-01
  1.61277800e-01  3.04752490e+03  4.57369510e+02  1.03948690e+02  2.92101550e+01
  9.28666300e+00  3.16392700e+00  7.86827240e+00  1.88128850e+00  5.44249300e-01
  7.86827240e+00  1.88128850e+00  5.44249300e-01  1.68714400e-01  1.68714400e-01
  8.00000000e-01  4.38000000e-02  4.38000000e-02  5.48467170e+03  8.25234950e+02
  1.88046960e+02  5.29645000e+01  1.68975700e+01  5.79963530e+00  1.55396160e+01
  3.59993360e+00  1.01376180e+00  1.55396160e+01  3.59993360e+00  1.01376180e+00
  2.70005800e-01  2.70005800e-01  8.00000000e-01  8.45000000e-02  8.45000000e-02
  3.04752490e+03  4.57369510e+02  1.03948690e+02  2.92101550e+01  9.28666300e+00
  3.16392700e+00  7.86827240e+00  1.88128850e+00  5.44249300e-01  7.86827240e+00
  1.88128850e+00  5.44249300e-01  1.68714400e-01  1.68714400e-01  8.00000000e-01
  4.38000000e-02  4.38000000e-02  3.04752490e+03  4.57369510e+02  1.03948690e+02
  2.92101550e+01  9.28666300e+00  3.16392700e+00  7.86827240e+00  1.88128850e+00
  5.44249300e-01  7.86827240e+00  1.88128850e+00  5.44249300e-01  1.68714400e-01
  1.68714400e-01  8.00000000e-01  4.38000000e-02  4.38000000e-02  1.87311370e+01
  2.82539370e+00  6.40121700e-01  1.61277800e-01  1.87311370e+01  2.82539370e+00
  6.40121700e-01  1.61277800e-01  1.87311370e+01  2.82539370e+00  6.40121700e-01
  1.61277800e-01  1.87311370e+01  2.82539370e+00  6.40121700e-01  1.61277800e-01
  1.87311370e+01  2.82539370e+00  6.40121700e-01  1.61277800e-01  1.87311370e+01
  2.82539370e+00  6.40121700e-01  1.61277800e-01  1.87311370e+01  2.82539370e+00
  6.40121700e-01  1.61277800e-01  1.87311370e+01  2.82539370e+00  6.40121700e-01
  1.61277800e-01  1.87311370e+01  2.82539370e+00  6.40121700e-01  1.61277800e-01
Contraction coefficients                   R   N=         390
  1.83479944e-03  1.39949958e-02  6.85869792e-02  2.32240930e-01  4.69069858e-01
  3.60454891e-01 -1.14961023e-01 -1.69118034e-01  1.14585223e+00  6.75800232e-02
  3.23907111e-01  7.40895255e-01  1.00000000e+00  1.00000000e+00  1.00000000e+00
  1.00000000e+00  1.00000000e+00  1.83470016e-03  1.40373012e-02  6.88426061e-02
  2.32184421e-01  4.67941342e-01  3.62312032e-01 -1.19332409e-01 -1.60854212e-01
  1.14345648e+00  6.89990956e-02  3.16423980e-01  7.44308252e-01  1.00000000e+00
  1.00000000e+00  1.00000000e+00  1.00000000e+00  1.00000000e+00  1.83470016e-03
  1.40373012e-02  6.88426061e-02  2.32184421e-01  4.67941342e-01  3.62312032e-01
 -1.19332409e-01 -1.60854212e-01  1.14345648e+00  6.89990956e-02  3.16423980e-01
  7.44308252e-01  1.00000000e+00  1.00000000e+00  1.00000000e+00  1.00000000e+00
  1.00000000e+00  1.83470016e-03  1.40373012e-02  6.88426061e-02  2.32184421e-01
  4.67941342e-01  3.62312032e-01 -1.19332409e-01 -1.60854212e-01  1.14345648e+00
  6.89990956e-02  3.16423980e-01  7.44308252e-01  1.00000000e+00  1.00000000e+00
  1.00000000e+00  1.00000000e+00  1.00000000e+00  1.83470016e-03  1.40373012e-02
  6.88426061e-02  2.32184421e-01  4.67941342e-01  3.62312032e-01 -1.19332409e-01
 -1.60854212e-01  1.14345648e+00  6.89990956e-02  3.16423980e-01  7.44308252e-01
  1.00000000e+00  1.00000000e+00  1.00000000e+00  1.00000000e+00  1.00000000e+00
  1.83470016e-03  1.40373012e-02  6.88426061e-02  2.32184421e-01  4.67941342e-01
  3.62312032e-01 -1.19332409e-01 -1.60854212e-01  1.14345648e+00  6.89990956e-02
  3.16423980e-01  7.44308252e-01  1.00000000e+00  1.00000000e+00  1.00000000e+00
  1.00000000e+00  1.00000000e+00  3.34945995e-02  2.34726947e-01  8.13757318e-01
  1.00000000e+00  3.34945995e-02  2.34726947e-01  8.13757318e-01  1.00000000e+00
  3.34945995e-02  2.34726947e-01  8.13757318e-01  1.00000000e+00  3.34945995e-02
  2.34726947e-01  8.13757318e-01  1.00000000e+00  1.83109981e-03  1.39500985e-02
  6.84450927e-02  2.32714275e-01  4.70192950e-01  3.58520862e-01 -1.10777504e-01
 -1.48026305e-01  1.13076704e+00  7.08742995e-02  3.39752798e-01  7.27158595e-01
  1.00000000e+00  1.00000000e+00  1.00000000e+00  1.00000000e+00  1.00000000e+00
  1.83470016e-03  1.40373012e-02  6.88426061e-02  2.32184421e-01  4.67941342e-01
  3.62312032e-01 -1.19332409e-01 -1.60854212e-01  1.14345648e+00  6.89990956e-02
  3.16423980e-01  7.44308252e-01  1.00000000e+00  1.00000000e+00  1.00000000e+00
  1.00000000e+00  1.00000000e+00  1.83470016e-03  1.40373012e-02  6.88426061e-02
  2.32184421e-01  4.67941342e-01  3.62312032e-01 -1.19332409e-01 -1.60854212e-01
  1.14345648e+00  6.89990956e-02  3.16423980e-01  7.44308252e-01  1.00000000e+00
  1.00000000e+00  1.00000000e+00  1.00000000e+00  1.00000000e+00  1.83470016e-03
  1.40373012e-02  6.88426061e-02  2.32184421e-01  4.67941342e-01  3.62312032e-01
 -1.19332409e-01 -1.60854212e-01  1.14345648e+00  6.89990956e-02  3.16423980e-01
  7.44308252e-01  1.00000000e+00  1.00000000e+00  1.00000000e+00  1.00000000e+00
  1.00000000e+00  1.83470016e-03  1.40373012e-02  6.88426061e-02  2.32184421e-01
  4.67941342e-01  3.62312032e-01 -1.19332409e-01 -1.60854212e-01  1.14345648e+00
  6.89990956e-02  3.16423980e-01  7.44308252e-01  1.00000000e+00  1.00000000e+00
  1.00000000e+00  1.00000000e+00  1.00000000e+00  1.83470016e-03  1.40373012e-02
  6.88426061e-02  2.32184421e-01  4.67941342e-01  3.62312032e-01 -1.19332409e-01
 -1.60854212e-01  1.14345648e+00  6.89990956e-02  3.16423980e-01  7.44308252e-01
  1.00000000e+00  1.00000000e+00  1.00000000e+00  1.00000000e+00  1.00000000e+00
  1.83470016e-03  1.40373012e-02  6.88426061e-02  2.32184421e-01  4.67941342e-01
  3.62312032e-01 -1.19332409e-01 -1.60854212e-01  1.14345648e+00  6.89990956e-02
  3.16423980e-01  7.44308252e-01  1.00000000e+00  1.00000000e+00  1.00000000e+00
  1.00000000e+00  1.00000000e+00  3.34945995e-02  2.34726947e-01  8.13757318e-01
  1.00000000e+00  3.34945995e-02  2.34726947e-01  8.13757318e-01  1.00000000e+00
  3.34945995e-02  2.34726947e-01  8.13757318e-01  1.00000000e+00  3.34945995e-02
  2.34726947e-01  8.13757318e-01  1.00000000e+00  3.34945995e-02  2.34726947e-01
  8.13757318e-01  1.00000000e+00  1.83470016e-03  1.40373012e-02  6.88426061e-02
  2.32184421e-01  4.67941342e-01  3.62312032e-01 -1.19332409e-01 -1.60854212e-01
  1.14345648e+00  6.89990956e-02  3.16423980e-01  7.44308252e-01  1.00000000e+00
  1.00000000e+00  1.00000000e+00  1.00000000e+00  1.00000000e+00  3.34945995e-02
  2.34726947e-01  8.13757318e-01  1.00000000e+00  3.34945995e-02  2.34726947e-01
  8.13757318e-01  1.00000000e+00  3.34945995e-02  2.34726947e-01  8.13757318e-01
  1.00000000e+00  1.83470016e-03  1.40373012e-02  6.88426061e-02  2.32184421e-01
  4.67941342e-01  3.62312032e-01 -1.19332409e-01 -1.60854212e-01  1.14345648e+00
  6.89990956e-02  3.16423980e-01  7.44308252e-01  1.00000000e+00  1.00000000e+00
  1.00000000e+00  1.00000000e+00  1.00000000e+00  1.83109981e-03  1.39500985e-02
  6.84450927e-02  2.32714275e-01  4.70192950e-01  3.58520862e-01 -1.10777504e-01
 -1.48026305e-01  1.13076704e+00  7.08742995e-02  3.39752798e-01  7.27158595e-01
  1.00000000e+00  1.00000000e+00  1.00000000e+00  1.00000000e+00  1.00000000e+00
  1.83470016e-03  1.40373012e-02  6.88426061e-02  2.32184421e-01  4.67941342e-01
  3.62312032e-01 -1.19332409e-01 -1.60854212e-01  1.14345648e+00  6.89990956e-02
  3.16423980e-01  7.44308252e-01  1.00000000e+00  1.00000000e+00  1.00000000e+00
  1.00000000e+00  1.00000000e+00  1.83470016e-03  1.40373012e-02  6.88426061e-02
  2.32184421e-01  4.67941342e-01  3.62312032e-01 -1.19332409e-01 -1.60854212e-01
  1.14345648e+00  6.89990956e-02  3.16423980e-01  7.44308252e-01  1.00000000e+00
  1.00000000e+00  1.00000000e+00  1.00000000e+00  1.00000000e+00  3.34945995e-02
  2.34726947e-01  8.13757318e-01  1.00000000e+00  3.34945995e-02  2.34726947e-01
  8.13757318e-01  1.00000000e+00  3.34945995e-02  2.34726947e-01  8.13757318e-01
  1.00000000e+00  3.34945995e-02  2.34726947e-01  8.13757318e-01  1.00000000e+00
  3.34945995e-02  2.34726947e-01  8.13757318e-01  1.00000000e+00  3.34945995e-02
  2.34726947e-01  8.13757318e-01  1.00000000e+00  3.34945995e-02  2.34726947e-01
  8.13757318e-01  1.00000000e+00  3.34945995e-02  2.34726947e-01  8.13757318e-01
  1.00000000e+00  3.34945995e-02  2.34726947e-01  8.13757318e-01  1.00000000e+00
Coordinates of each shell                  R   N=         558
 -3.80602775e+00 -4.43327523e+00  2.79089144e+00 -3.80602775e+00 -4.43327523e+00
  2.79089144e+00 -3.80602775e+00 -4.43327523e+00  2.79089144e+00 -3.80602775e+00
 -4.43327523e+00  2.79089144e+00 -3.80602775e+00 -4.43327523e+00  2.79089144e+00
 -3.80602775e+00 -4.43327523e+00  2.79089144e+00 -3.80602775e+00 -4.43327523e+00
  2.79089144e+00 -3.80602775e+00 -4.43327523e+00  2.79089144e+00 -1.69547810e+00
 -3.09968518e+00  3.99708325e+00 -1.69547810e+00 -3.09968518e+00  3.99708325e+00
 -1.69547810e+00 -3.09968518e+00  3.99708325e+00 -1.69547810e+00 -3.09968518e+00
  3.99708325e+00 -1.69547810e+00 -3.09968518e+00  3.99708325e+00 -1.69547810e+00
 -3.09968518e+00  3.99708325e+00 -1.69547810e+00 -3.09968518e+00  3.99708325e+00
 -1.69547810e+00 -3.09968518e+00  3.99708325e+00  3.33059774e-01 -2.39697917e+00
  2.05619088e+00  3.33059774e-01 -2.39697917e+00  2.05619088e+00  3.33059774e-01
 -2.39697917e+00  2.05619088e+00  3.33059774e-01 -2.39697917e+00  2.05619088e+00
  3.33059774e-01 -2.39697917e+00  2.05619088e+00  3.33059774e-01 -2.39697917e+00
  2.05619088e+00  3.33059774e-01 -2.39697917e+00  2.05619088e+00  3.33059774e-01
 -2.39697917e+00  2.05619088e+00 -6.43291664e-01 -4.55024889e-01  8.97898955e-02
 -6.43291664e-01 -4.55024889e-01  8.97898955e-02 -6.43291664e-01 -4.55024889e-01
  8.97898955e-02 -6.43291664e-01 -4.55024889e-01  8.97898955e-02 -6.43291664e-01
 -4.55024889e-01  8.97898955e-02 -6.43291664e-01 -4.55024889e-01  8.97898955e-02
 -6.43291664e-01 -4.55024889e-01  8.97898955e-02 -6.43291664e-01 -4.55024889e-01
  8.97898955e-02 -4.41124387e+00 -3.45137162e+00  2.45734010e-01 -4.41124387e+00
 -3.45137162e+00  2.45734010e-01 -4.41124387e+00 -3.45137162e+00  2.45734010e-01
 -4.41124387e+00 -3.45137162e+00  2.45734010e-01 -4.41124387e+00 -3.45137162e+00
  2.45734010e-01 -4.41124387e+00 -3.45137162e+00  2.45734010e-01 -4.41124387e+00
 -3.45137162e+00  2.45734010e-01 -4.41124387e+00 -3.45137162e+00  2.45734010e-01
 -3.55402491e+00 -7.09846741e-01 -1.30023523e-01 -3.55402491e+00 -7.09846741e-01
 -1.30023523e-01 -3.55402491e+00 -7.09846741e-01 -1.30023523e-01 -3.55402491e+00
 -7.09846741e-01 -1.30023523e-01 -3.55402491e+00 -7.09846741e-01 -1.30023523e-01
 -3.55402491e+00 -7.09846741e-01 -1.30023523e-01 -3.55402491e+00 -7.09846741e-01
 -1.30023523e-01 -3.55402491e+00 -7.09846741e-01 -1.30023523e-01 -6.45540553e+00
 -3.59299670e+00 -5.28090769e-02 -6.45540553e+00 -3.59299670e+00 -5.28090769e-02
 -3.51579422e+00 -4.65178536e+00 -1.19198652e+00 -3.51579422e+00 -4.65178536e+00
 -1.19198652e+00  8.61875197e-01 -4.12197840e+00  1.04222779e+00  8.61875197e-01
 -4.12197840e+00  1.04222779e+00  2.04663870e+00 -1.72324273e+00  2.98507416e+00
  2.04663870e+00 -1.72324273e+00  2.98507416e+00  2.50445509e-01 -1.17786632e+00
 -2.45117445e+00  2.50445509e-01 -1.17786632e+00 -2.45117445e+00  2.50445509e-01
 -1.17786632e+00 -2.45117445e+00  2.50445509e-01 -1.17786632e+00 -2.45117445e+00
  2.50445509e-01 -1.17786632e+00 -2.45117445e+00  2.50445509e-01 -1.17786632e+00
 -2.45117445e+00  2.50445509e-01 -1.17786632e+00 -2.45117445e+00  2.50445509e-01
 -1.17786632e+00 -2.45117445e+00 -2.28214687e-01  4.08168806e+00 -1.37858709e+00
 -2.28214687e-01  4.08168806e+00 -1.37858709e+00 -2.28214687e-01  4.08168806e+00
 -1.37858709e+00 -2.28214687e-01  4.08168806e+00 -1.37858709e+00 -2.28214687e-01
  4.08168806e+00 -1.37858709e+00 -2.28214687e-01  4.08168806e+00 -1.37858709e+00
 -2.28214687e-01  4.08168806e+00 -1.37858709e+00 -2.28214687e-01  4.08168806e+00
 -1.37858709e+00  4.03455091e-02  2.31239765e+00  5.81602717e-01  4.03455091e-02
  2.31239765e+00  5.81602717e-01  4.03455091e-02  2.31239765e+00  5.81602717e-01
  4.03455091e-02  2.31239765e+00  5.81602717e-01  4.03455091e-02  2.31239765e+00
  5.81602717e-01  4.03455091e-02  2.31239765e+00  5.81602717e-01  4.03455091e-02
  2.31239765e+00  5.81602717e-01  4.03455091e-02  2.31239765e+00  5.81602717e-01
  7.66335894e-01  3.19380918e+00  2.96954837e+00  7.66335894e-01  3.19380918e+00
  2.96954837e+00  7.66335894e-01  3.19380918e+00  2.96954837e+00  7.66335894e-01
  3.19380918e+00  2.96954837e+00  7.66335894e-01  3.19380918e+00  2.96954837e+00
  7.66335894e-01  3.19380918e+00  2.96954837e+00  7.66335894e-01  3.19380918e+00
  2.96954837e+00  7.66335894e-01  3.19380918e+00  2.96954837e+00  1.23245777e+00
  5.76193779e+00  3.38421117e+00  1.23245777e+00  5.76193779e+00  3.38421117e+00
  1.23245777e+00  5.76193779e+00  3.38421117e+00  1.23245777e+00  5.76193779e+00
  3.38421117e+00  1.23245777e+00  5.76193779e+00  3.38421117e+00  1.23245777e+00
  5.76193779e+00  3.38421117e+00  1.23245777e+00  5.76193779e+00  3.38421117e+00
  1.23245777e+00  5.76193779e+00  3.38421117e+00  9.82245135e-01  7.49830643e+00
  1.41499765e+00  9.82245135e-01  7.49830643e+00  1.41499765e+00  9.82245135e-01