Generated by Psi4
     FORCE                           RHF                       TESTBAS
Number of atoms                            I               39
Charge                                     I                0
Multiplicity                               I                1
Number of electrons                        I              132
Number of alpha electrons                  I               66
Number of beta electrons                   I               66
Number of basis functions                  I              384
Number of independent functions            I              384
Atomic numbers                             I   N=          39
           6           6           6           6           6           6
           6           8           6           6           7           6
           6           6           6           6           6           6
           1           1           1           1           1           1
           1           1           1           1           1           1
           1           1           1           1           1           1
           1           1           1
Nuclear charges                            R   N=          39
  6.00000000e+00  6.00000000e+00  6.00000000e+00  6.00000000e+00  6.00000000e+00
  6.00000000e+00  6.00000000e+00  8.00000000e+00  6.00000000e+00  6.00000000e+00
  7.00000000e+00  6.00000000e+00  6.00000000e+00  6.00000000e+00  6.00000000e+00
  6.00000000e+00  6.00000000e+00  6.00000000e+00  1.00000000e+00  1.00000000e+00
  1.00000000e+00  1.00000000e+00  1.00000000e+00  1.00000000e+00  1.00000000e+00
  1.00000000e+00  1.00000000e+00  1.00000000e+00  1.00000000e+00  1.00000000e+00
  1.00000000e+00  1.00000000e+00  1.00000000e+00  1.00000000e+00  1.00000000e+00
  1.00000000e+00  1.00000000e+00  1.00000000e+00  1.00000000e+00
Current cartesian coordinates              R   N=         117
 -6.54426284e+00  1.89811736e-01  2.93108702e+00 -4.13587243e+00  7.45301145e-01
  4.46888397e+00 -1.97664123e+00 -1.06422048e+00  3.76951712e+00 -1.20663699e+00
 -9.57400470e-01  9.07766053e-01  3.38509800e+00  5.72780079e-02  2.12087073e+00
  1.36808717e+00  3.16342757e-01  4.10724674e-01  5.75220809e+00  1.11165552e+00
  1.63880209e+00  7.74351217e+00  8.89021063e-01  3.29530430e+00  6.17171178e+00
  2.45010963e+00 -5.96505016e-01 -6.46520708e-01 -3.82565266e+00 -3.00491877e+00
 -2.40626075e+00 -2.22438178e+00 -4.43975251e+00 -2.63638516e+00  3.68990336e-01
 -3.44765643e+00 -5.95817435e+00 -2.91005860e-01  9.13847183e-02 -3.25949221e+00
  5.24492706e-01 -6.02438655e-01 -1.05354506e+00 -3.71637667e+00 -1.33128505e-01
 -2.11824059e-01  1.90539284e+00 -3.91003341e+00  1.80398218e+00  1.61212996e+00
 -1.87810820e+00  4.19827813e+00  2.66878817e+00 -2.31772768e+00 -7.39582460e-01
  3.91239520e+00 -4.03727527e+00  5.67616313e-01  1.39171345e+00 -5.76192996e+00
 -2.81677937e+00 -4.70732259e+00  3.37506970e-01  4.73845477e-01 -4.72735796e+00
  8.46214915e-01  1.28619719e+00 -3.24576664e+00 -3.47363084e+00 -8.58039760e-01
 -5.77136840e+00 -3.68541548e+00  4.52473030e+00  3.68062575e+00 -4.07923258e+00
  8.01618567e+00  3.27239220e+00 -9.59642899e-01 -4.54544670e+00  5.80482884e-01
  6.49582749e+00 -3.52796037e+00  2.70599219e+00  4.16583514e+00  7.21613597e+00
 -6.25407446e-02  4.77007915e+00 -2.58132187e+00 -2.99826594e+00  4.22678280e+00
 -3.61045944e-01 -6.75806706e-01  4.99703571e+00  3.12832894e+00 -1.00272702e+00
  3.86332824e+00 -4.14832236e+00 -3.04383699e+00 -4.45666919e+00 -3.08566711e+00
  2.52996037e+00 -8.14623307e-02 -7.49627336e+00 -1.46805611e+00  3.73862426e+00
 -7.86998246e+00  1.77134476e+00  3.13541217e+00 -7.29976779e+00  7.47827567e-01
 -1.10386307e+00 -6.23655769e+00 -2.29638797e+00 -3.57541692e-01 -4.16934119e+00
  1.25124617e+00 -4.53182511e+00
Integer atomic weights                     I   N=          39
          12          12          12          12          12          12
          12          15          12          12          14          12
          12          12          12          12          12          12
           1           1           1           1           1           1
           1           1           1           1           1           1
           1           1           1           1           1           1
           1           1           1
Real atomic weights                        R   N=          39
  1.20000000e+01  1.20000000e+01  1.20000000e+01  1.20000000e+01  1.20000000e+01
  1.20000000e+01  1.20000000e+01  1.59949146e+01  1.20000000e+01  1.20000000e+01
  1.40030740e+01  1.20000000e+01  1.20000000e+01  1.20000000e+01  1.20000000e+01
  1.20000000e+01  1.20000000e+01  1.20000000e+01  1.00782503e+00  1.00782503e+00
  1.00782503e+00  1.00782503e+00  1.00782503e+00  1.00782503e+00  1.00782503e+00
  1.00782503e+00  1.00782503e+00  1.00782503e+00  1.00782503e+00  1.00782503e+00
  1.00782503e+00  1.00782503e+00  1.00782503e+00  1.00782503e+00  1.00782503e+00
  1.00782503e+00  1.00782503e+00  1.00782503e+00  1.00782503e+00
Number of primitive shells                 I              390
Number of contracted shells                I              186
Pure/Cartesian d shells                    I                1
Pure/Cartesian f shells                    I                1
Highest angular momentum                   I                2
Largest degree of contraction              I                6
Shell types                                I   N=         186
           0           0           1           0           1           2
           0           1           0           0           1           0
           1           2           0           1           0           0
           1           0           1           2           0           1
           0           0           1           0           1           2
           0           1           0           0           1           0
           1           2           0           1           0           0
           1           0           1           2           0           1
           0           0           1           0           1           2
           0           1           0           0           1           0
           1           2           0           1           0           0
           1           0           1           2           0           1
           0           0           1           0           1           2
           0           1           0           0           1           0
           1           2           0           1           0           0
           1           0           1           2           0           1
           0           0           1           0           1           2
           0           1           0           0           1           0
           1           2           0           1           0           0
           1           0           1           2           0           1
           0           0           1           0           1           2
           0           1           0           0           1           0
           1           2           0           1           0           0
           1           0           1           2           0           1
           0           0           0           0           0           0
           0           0           0           0           0           0
           0           0           0           0           0           0
           0           0           0           0           0           0
           0           0           0           0           0           0
           0           0           0           0           0           0
           0           0           0           0           0           0
Number of primitives per shell             I   N=         186
           6           3           3           1           1           1
           1           1           6           3           3           1
           1           1           1           1           6           3
           3           1           1           1           1           1
           6           3           3           1           1           1
           1           1           6           3           3           1
           1           1           1           1           6           3
           3           1           1           1           1           1
           6           3           3           1           1           1
           1           1           6           3           3           1
           1           1           1           1           6           3
           3           1           1           1           1           1
           6           3           3           1           1           1
           1           1           6           3           3           1
           1           1           1           1           6           3
           3           1           1           1           1           1
           6           3           3           1           1           1
           1           1           6           3           3           1
           1           1           1           1           6           3
           3           1           1           1           1           1
           6           3           3           1           1           1
           1           1           6           3           3           1
           1           1           1           1           6           3
           3           1           1           1           1           1
           3           1           3           1           3           1
           3           1           3           1           3           1
           3           1           3           1           3           1
           3           1           3           1           3           1
           3           1           3           1           3           1
           3           1           3           1           3           1
           3           1           3           1           3           1
Shell to atom map                          I   N=         186
           1           1           1           1           1           1
           1           1           2           2           2           2
           2           2           2           2           3           3
           3           3           3           3           3           3
           4           4           4           4           4           4
           4           4           5           5           5           5
           5           5           5           5           6           6
           6           6           6           6           6           6
           7           7           7           7           7           7
           7           7           8           8           8           8
           8           8           8           8           9           9
           9           9           9           9           9           9
          10          10          10          10          10          10
          10          10          11          11          11          11
          11          11          11          11          12          12
          12          12          12          12          12          12
          13          13          13          13          13          13
          13          13          14          14          14          14
          14          14          14          14          15          15
          15          15          15          15          15          15
          16          16          16          16          16          16
          16          16          17          17          17          17
          17          17          17          17          18          18
          18          18          18          18          18          18
          19          19          20          20          21          21
          22          22          23          23          24          24
          25          25          26          26          27          27
          28          28          29          29          30          30
          31          31          32          32          33          33
          34          34          35          35          36          36
          37          37          38          38          39          39
Primitive exponents                        R   N=         390
  3.04752490e+03  4.57369510e+02  1.03948690e+02  2.92101550e+01  9.28666300e+00
  3.16392700e+00  7.86827240e+00  1.88128850e+00  5.44249300e-01  7.86827240e+00
  1.88128850e+00  5.44249300e-01  1.68714400e-01  1.68714400e-01  8.00000000e-01
  4.38000000e-02  4.38000000e-02  3.04752490e+03  4.57369510e+02  1.03948690e+02
  2.92101550e+01  9.28666300e+00  3.16392700e+00  7.86827240e+00  1.88128850e+00
  5.44249300e-01  7.86827240e+00  1.88128850e+00  5.44249300e-01  1.68714400e-01
  1.68714400e-01  8.00000000e-01  4.38000000e-02  4.38000000e-02  3.04752490e+03
  4.57369510e+02  1.03948690e+02  2.92101550e+01  9.28666300e+00  3.16392700e+00
  7.86827240e+00  1.88128850e+00  5.44249300e-01  7.86827240e+00  1.88128850e+00
  5.44249300e-01  1.68714400e-01  1.68714400e-01  8.00000000e-01  4.38000000e-02
  4.38000000e-02  3.04752490e+03  4.57369510e+02  1.03948690e+02  2.92101550e+01
  9.28666300e+00  3.16392700e+00  7.86827240e+00  1.88128850e+00  5.44249300e-01
  7.86827240e+00  1.88128850e+00  5.44249300e-01  1.68714400e-01  1.68714400e-01
  8.00000000e-01  4.38000000e-02  4.38000000e-02  3.04752490e+03  4.57369510e+02
  1.03948690e+02  2.92101550e+01  9.28666300e+00  3.16392700e+00  7.86827240e+00
  1.88128850e+00  5.44249300e-01  7.86827240e+00  1.88128850e+00  5.44249300e-01
  1.68714400e-01  1.68714400e-01  8.00000000e-01  4.38000000e-02  4.38000000e-02
  3.04752490e+03  4.57369510e+02  1.03948690e+02  2.92101550e+01  9.28666300e+00
  3.16392700e+00  7.86827240e+00  1.88128850e+00  5.44249300e-01  7.86827240e+00
  1.88128850e+00  5.44249300e-01  1.68714400e-01  1.68714400e-01  8.00000000e-01
  4.38000000e-02  4.38000000e-02  3.04752490e+03  4.57369510e+02  1.03948690e+02
  2.92101550e+01  9.28666300e+00  3.16392700e+00  7.86827240e+00  1.88128850e+00
  5.44249300e-01  7.86827240e+00  1.88128850e+00  5.44249300e-01  1.68714400e-01
  1.68714400e-01  8.00000000e-01  4.38000000e-02  4.38000000e-02  5.48467170e+03
  8.25234950e+02  1.88046960e+02  5.29645000e+01  1.68975700e+01  5.79963530e+00
  1.55396160e+01  3.59993360e+00  1.01376180e+00  1.55396160e+01  3.59993360e+00
  1.01376180e+00  2.70005800e-01  2.70005800e-01  8.00000000e-01  8.45000000e-02
  8.45000000e-02  3.04752490e+03  4.57369510e+02  1.03948690e+02  2.92101550e+01
  9.28666300e+00  3.16392700e+00  7.86827240e+00  1.88128850e+00  5.44249300e-01
  7.86827240e+00  1.88128850e+00  5.44249300e-01  1.68714400e-01  1.68714400e-01
  8.00000000e-01  4.38000000e-02  4.38000000e-02  3.04752490e+03  4.57369510e+02
  1.03948690e+02  2.92101550e+01  9.28666300e+00  3.16392700e+00  7.86827240e+00
  1.88128850e+00  5.44249300e-01  7.86827240e+00  1.88128850e+00  5.44249300e-01
  1.68714400e-01  1.68714400e-01  8.00000000e-01  4.38000000e-02  4.38000000e-02
  4.17351100e+03  6.27457900e+02  1.42902100e+02  4.02343300e+01  1.28202100e+01
  4.39043700e+00  1.16263580e+01  2.71628000e+00  7.72218000e-01  1.16263580e+01
  2.71628000e+00  7.72218000e-01  2.12031300e-01  2.12031300e-01  8.00000000e-01
  6.39000000e-02  6.39000000e-02  3.04752490e+03  4.57369510e+02  1.03948690e+02
  2.92101550e+01  9.28666300e+00  3.16392700e+00  7.86827240e+00  1.88128850e+00
  5.44249300e-01  7.86827240e+00  1.88128850e+00  5.44249300e-01  1.68714400e-01
  1.68714400e-01  8.00000000e-01  4.38000000e-02  4.38000000e-02  3.04752490e+03
  4.57369510e+02  1.03948690e+02  2.92101550e+01  9.28666300e+00  3.16392700e+00
  7.86827240e+00  1.88128850e+00  5.44249300e-01  7.86827240e+00  1.88128850e+00
  5.44249300e-01  1.68714400e-01  1.68714400e-01  8.00000000e-01  4.38000000e-02
  4.38000000e-02  3.04752490e+03  4.57369510e+02  1.03948690e+02  2.92101550e+01
  9.28666300e+00  3.16392700e+00  7.86827240e+00  1.88128850e+00  5.44249300e-01
  7.86827240e+00  1.88128850e+00  5.44249300e-01  1.68714400e-01  1.68714400e-01
  8.00000000e-01  4.38000000e-02  4.38000000e-02  3.04752490e+03  4.57369510e+02
  1.03948690e+02  2.92101550e+01  9.28666300e+00  3.16392700e+00  7.86827240e+00
  1.88128850e+00  5.44249300e-01  7.86827240e+00  1.88128850e+00  5.44249300e-01
  1.68714400e-01  1.68714400e-01  8.00000000e-01  4.38000000e-02  4.38000000e-02
  3.04752490e+03  4.57369510e+02  1.03948690e+02  2.92101550e+01  9.28666300e+00
  3.16392700e+00  7.86827240e+00  1.88128850e+00  5.44249300e-01  7.86827240e+00
  1.88128850e+00  5.44249300e-01  1.68714400e-01  1.68714400e-01  8.00000000e-01
  4.38000000e-02  4.38000000e-02  3.04752490e+03  4.57369510e+02  1.03948690e+02
  2.92101550e+01  9.28666300e+00  3.16392700e+00  7.86827240e+00  1.88128850e+00
  5.44249300e-01  7.86827240e+00  1.88128850e+00  5.44249300e-01  1.68714400e-01
  1.68714400e-01  8.00000000e-01  4.38000000e-02  4.38000000e-02  3.04752490e+03
  4.57369510e+02  1.03948690e+02  2.92101550e+01  9.28666300e+00  3.16392700e+00
  7.86827240e+00  1.88128850e+00  5.44249300e-01  7.86827240e+00  1.88128850e+00
  5.44249300e-01  1.68714400e-01  1.68714400e-01  8.00000000e-01  4.38000000e-02
  4.38000000e-02  1.87311370e+01  2.82539370e+00  6.40121700e-01  1.61277800e-01
  1.87311370e+01  2.82539370e+00  6.40121700e-01  1.61277800e-01  1.87311370e+01
  2.82539370e+00  6.40121700e-01  1.61277800e-01  1.87311370e+01  2.82539370e+00
  6.40121700e-01  1.61277800e-01  1.87311370e+01  2.82539370e+00  6.40121700e-01
  1.61277800e-01  1.87311370e+01  2.82539370e+00  6.40121700e-01  1.61277800e-01
  1.87311370e+01  2.82539370e+00  6.40121700e-01  1.61277800e-01  1.87311370e+01
  2.82539370e+00  6.40121700e-01  1.61277800e-01  1.87311370e+01  2.82539370e+00
  6.40121700e-01  1.61277800e-01  1.87311370e+01  2.82539370e+00  6.40121700e-01
  1.61277800e-01  1.87311370e+01  2.82539370e+00  6.40121700e-01  1.61277800e-01
  1.87311370e+01  2.82539370e+00  6.40121700e-01  1.61277800e-01  1.87311370e+01
  2.82539370e+00  6.40121700e-01  1.61277800e-01  1.87311370e+01  2.82539370e+00
  6.40121700e-01  1.61277800e-01  1.87311370e+01  2.82539370e+00  6.40121700e-01
  1.61277800e-01  1.87311370e+01  2.82539370e+00  6.40121700e-01  1.61277800e-01
  1.87311370e+01  2.82539370e+00  6.40121700e-01  1.61277800e-01  1.87311370e+01
  2.82539370e+00  6.40121700e-01  1.61277800e-01  1.87311370e+01  2.82539370e+00
  6.40121700e-01  1.61277800e-01  1.87311370e+01  2.82539370e+00  6.40121700e-01
  1.61277800e-01  1.87311370e+01  2.82539370e+00  6.40121700e-01  1.61277800e-01
Contraction coefficients                   R   N=         390
  1.83470016e-03  1.40373012e-02  6.88426061e-02  2.32184421e-01  4.67941342e-01
  3.62312032e-01 -1.19332409e-01 -1.60854212e-01  1.14345648e+00  6.89990956e-02
  3.16423980e-01  7.44308252e-01  1.00000000e+00  1.00000000e+00  1.00000000e+00
  1.00000000e+00  1.00000000e+00  1.83470016e-03  1.40373012e-02  6.88426061e-02
  2.32184421e-01  4.67941342e-01  3.62312032e-01 -1.19332409e-01 -1.60854212e-01
  1.14345648e+00  6.89990956e-02  3.16423980e-01  7.44308252e-01  1.00000000e+00
  1.00000000e+00  1.00000000e+00  1.00000000e+00  1.00000000e+00  1.83470016e-03
  1.40373012e-02  6.88426061e-02  2.32184421e-01  4.67941342e-01  3.62312032e-01
 -1.19332409e-01 -1.60854212e-01  1.14345648e+00  6.89990956e-02  3.16423980e-01
  7.44308252e-01  1.00000000e+00  1.00000000e+00  1.00000000e+00  1.00000000e+00
  1.00000000e+00  1.83470016e-03  1.40373012e-02  6.88426061e-02  2.32184421e-01
  4.67941342e-01  3.62312032e-01 -1.19332409e-01 -1.60854212e-01  1.14345648e+00
  6.89990956e-02  3.16423980e-01  7.44308252e-01  1.00000000e+00  1.00000000e+00
  1.00000000e+00  1.00000000e+00  1.00000000e+00  1.83470016e-03  1.40373012e-02
  6.88426061e-02  2.32184421e-01  4.67941342e-01  3.62312032e-01 -1.19332409e-01
 -1.60854212e-01  1.14345648e+00  6.89990956e-02  3.16423980e-01  7.44308252e-01
  1.00000000e+00  1.00000000e+00  1.00000000e+00  1.00000000e+00  1.00000000e+00
  1.83470016e-03  1.40373012e-02  6.88426061e-02  2.32184421e-01  4.67941342e-01
  3.62312032e-01 -1.19332409e-01 -1.60854212e-01  1.14345648e+00  6.89990956e-02
  3.16423980e-01  7.44308252e-01  1.00000000e+00  1.00000000e+00  1.00000000e+00
  1.00000000e+00  1.00000000e+00  1.83470016e-03  1.40373012e-02  6.88426061e-02
  2.32184421e-01  4.67941342e-01  3.62312032e-01 -1.19332409e-01 -1.60854212e-01
  1.14345648e+00  6.89990956e-02  3.16423980e-01  7.44308252e-01  1.00000000e+00
  1.00000000e+00  1.00000000e+00  1.00000000e+00  1.00000000e+00  1.83109981e-03
  1.39500985e-02  6.84450927e-02  2.32714275e-01  4.70192950e-01  3.58520862e-01
 -1.10777504e-01 -1.48026305e-01  1.13076704e+00  7.08742995e-02  3.39752798e-01
  7.27158595e-01  1.00000000e+00  1.00000000e+00  1.00000000e+00  1.00000000e+00
  1.00000000e+00  1.83470016e-03  1.40373012e-02  6.88426061e-02  2.32184421e-01
  4.67941342e-01  3.62312032e-01 -1.19332409e-01 -1.60854212e-01  1.14345648e+00
  6.89990956e-02  3.16423980e-01  7.44308252e-01  1.00000000e+00  1.00000000e+00
  1.00000000e+00  1.00000000e+00  1.00000000e+00  1.83470016e-03  1.40373012e-02
  6.88426061e-02  2.32184421e-01  4.67941342e-01  3.62312032e-01 -1.19332409e-01
 -1.60854212e-01  1.14345648e+00  6.89990956e-02  3.16423980e-01  7.44308252e-01
  1.00000000e+00  1.00000000e+00  1.00000000e+00  1.00000000e+00  1.00000000e+00
  1.83479944e-03  1.39949958e-02  6.85869792e-02  2.32240930e-01  4.69069858e-01
  3.60454891e-01 -1.14961023e-01 -1.69118034e-01  1.14585223e+00  6.75800232e-02
  3.23907111e-01  7.40895255e-01  1.00000000e+00  1.00000000e+00  1.00000000e+00
  1.00000000e+00  1.00000000e+00  1.83470016e-03  1.40373012e-02  6.88426061e-02
  2.32184421e-01  4.67941342e-01  3.62312032e-01 -1.19332409e-01 -1.60854212e-01
  1.14345648e+00  6.89990956e-02  3.16423980e-01  7.44308252e-01  1.00000000e+00
  1.00000000e+00  1.00000000e+00  1.00000000e+00  1.00000000e+00  1.83470016e-03
  1.40373012e-02  6.88426061e-02  2.32184421e-01  4.67941342e-01  3.62312032e-01
 -1.19332409e-01 -1.60854212e-01  1.14345648e+00  6.89990956e-02  3.16423980e-01
  7.44308252e-01  1.00000000e+00  1.00000000e+00  1.00000000e+00  1.00000000e+00
  1.00000000e+00  1.83470016e-03  1.40373012e-02  6.88426061e-02  2.32184421e-01
  4.67941342e-01  3.62312032e-01 -1.19332409e-01 -1.60854212e-01  1.14345648e+00
  6.89990956e-02  3.16423980e-01  7.44308252e-01  1.00000000e+00  1.00000000e+00
  1.00000000e+00  1.00000000e+00  1.00000000e+00  1.83470016e-03  1.40373012e-02
  6.88426061e-02  2.32184421e-01  4.67941342e-01  3.62312032e-01 -1.19332409e-01
 -1.60854212e-01  1.14345648e+00  6.89990956e-02  3.16423980e-01  7.44308252e-01
  1.00000000e+00  1.00000000e+00  1.00000000e+00  1.00000000e+00  1.00000000e+00
  1.83470016e-03  1.40373012e-02  6.88426061e-02  2.32184421e-01  4.67941342e-01
  3.62312032e-01 -1.19332409e-01 -1.60854212e-01  1.14345648e+00  6.89990956e-02
  3.16423980e-01  7.44308252e-01  1.00000000e+00  1.00000000e+00  1.00000000e+00
  1.00000000e+00  1.00000000e+00  1.83470016e-03  1.40373012e-02  6.88426061e-02
  2.32184421e-01  4.67941342e-01  3.62312032e-01 -1.19332409e-01 -1.60854212e-01
  1.14345648e+00  6.89990956e-02  3.16423980e-01  7.44308252e-01  1.00000000e+00
  1.00000000e+00  1.00000000e+00  1.00000000e+00  1.00000000e+00  1.83470016e-03
  1.40373012e-02  6.88426061e-02  2.32184421e-01  4.67941342e-01  3.62312032e-01
 -1.19332409e-01 -1.60854212e-01  1.14345648e+00  6.89990956e-02  3.16423980e-01
  7.44308252e-01  1.00000000e+00  1.00000000e+00  1.00000000e+00  1.00000000e+00
  1.00000000e+00  3.34945995e-02  2.34726947e-01  8.13757318e-01  1.00000000e+00
  3.34945995e-02  2.34726947e-01  8.13757318e-01  1.00000000e+00  3.34945995e-02
  2.34726947e-01  8.13757318e-01  1.00000000e+00  3.34945995e-02  2.34726947e-01
  8.13757318e-01  1.00000000e+00  3.34945995e-02  2.34726947e-01  8.13757318e-01
  1.00000000e+00  3.34945995e-02  2.34726947e-01  8.13757318e-01  1.00000000e+00
  3.34945995e-02  2.34726947e-01  8.13757318e-01  1.00000000e+00  3.34945995e-02
  2.34726947e-01  8.13757318e-01  1.00000000e+00  3.34945995e-02  2.34726947e-01
  8.13757318e-01  1.00000000e+00  3.34945995e-02  2.34726947e-01  8.13757318e-01
  1.00000000e+00  3.34945995e-02  2.34726947e-01  8.13757318e-01  1.00000000e+00
  3.34945995e-02  2.34726947e-01  8.13757318e-01  1.00000000e+00  3.34945995e-02
  2.34726947e-01  8.13757318e-01  1.00000000e+00  3.34945995e-02  2.34726947e-01
  8.13757318e-01  1.00000000e+00  3.34945995e-02  2.34726947e-01  8.13757318e-01
  1.00000000e+00  3.34945995e-02  2.34726947e-01  8.13757318e-01  1.00000000e+00
  3.34945995e-02  2.34726947e-01  8.13757318e-01  1.00000000e+00  3.34945995e-02
  2.34726947e-01  8.13757318e-01  1.00000000e+00  3.34945995e-02  2.34726947e-01
  8.13757318e-01  1.00000000e+00  3.34945995e-02  2.34726947e-01  8.13757318e-01
  1.00000000e+00  3.34945995e-02  2.34726947e-01  8.13757318e-01  1.00000000e+00
Coordinates of each shell                  R   N=         558
 -6.54426284e+00  1.89811736e-01  2.93108702e+00 -6.54426284e+00  1.89811736e-01
  2.93108702e+00 -6.54426284e+00  1.89811736e-01  2.93108702e+00 -6.54426284e+00
  1.89811736e-01  2.93108702e+00 -6.54426284e+00  1.89811736e-01  2.93108702e+00
 -6.54426284e+00  1.89811736e-01  2.93108702e+00 -6.54426284e+00  1.89811736e-01
  2.93108702e+00 -6.54426284e+00  1.89811736e-01  2.93108702e+00 -4.13587243e+00
  7.45301145e-01  4.46888397e+00 -4.13587243e+00  7.45301145e-01  4.46888397e+00
 -4.13587243e+00  7.45301145e-01  4.46888397e+00 -4.13587243e+00  7.45301145e-01
  4.46888397e+00 -4.13587243e+00  7.45301145e-01  4.46888397e+00 -4.13587243e+00
  7.45301145e-01  4.46888397e+00 -4.13587243e+00  7.45301145e-01  4.46888397e+00
 -4.13587243e+00  7.45301145e-01  4.46888397e+00 -1.97664123e+00 -1.06422048e+00
  3.76951712e+00 -1.97664123e+00 -1.06422048e+00  3.76951712e+00 -1.97664123e+00
 -1.06422048e+00  3.76951712e+00 -1.97664123e+00 -1.06422048e+00  3.76951712e+00
 -1.97664123e+00 -1.06422048e+00  3.76951712e+00 -1.97664123e+00 -1.06422048e+00
  3.76951712e+00 -1.97664123e+00 -1.06422048e+00  3.76951712e+00 -1.97664123e+00
 -1.06422048e+00  3.76951712e+00 -1.20663699e+00 -9.57400470e-01  9.07766053e-01
 -1.20663699e+00 -9.57400470e-01  9.07766053e-01 -1.20663699e+00 -9.57400470e-01
  9.07766053e-01 -1.20663699e+00 -9.57400470e-01  9.07766053e-01 -1.20663699e+00
 -9.57400470e-01  9.07766053e-01 -1.20663699e+00 -9.57400470e-01  9.07766053e-01
 -1.20663699e+00 -9.57400470e-01  9.07766053e-01 -1.20663699e+00 -9.57400470e-01
  9.07766053e-01  3.38509800e+00  5.72780079e-02  2.12087073e+00  3.38509800e+00
  5.72780079e-02  2.12087073e+00  3.38509800e+00  5.72780079e-02  2.12087073e+00
  3.38509800e+00  5.72780079e-02  2.12087073e+00  3.38509800e+00  5.72780079e-02
  2.12087073e+00  3.38509800e+00  5.72780079e-02  2.12087073e+00  3.38509800e+00
  5.72780079e-02  2.12087073e+00  3.38509800e+00  5.72780079e-02  2.12087073e+00
  1.36808717e+00  3.16342757e-01  4.10724674e-01  1.36808717e+00  3.16342757e-01
  4.10724674e-01  1.36808717e+00  3.16342757e-01  4.10724674e-01  1.36808717e+00
  3.16342757e-01  4.10724674e-01  1.36808717e+00  3.16342757e-01  4.10724674e-01
  1.36808717e+00  3.16342757e-01  4.10724674e-01  1.36808717e+00  3.16342757e-01
  4.10724674e-01  1.36808717e+00  3.16342757e-01  4.10724674e-01  5.75220809e+00
  1.11165552e+00  1.63880209e+00  5.75220809e+00  1.11165552e+00  1.63880209e+00
  5.75220809e+00  1.11165552e+00  1.63880209e+00  5.75220809e+00  1.11165552e+00
  1.63880209e+00  5.75220809e+00  1.11165552e+00  1.63880209e+00  5.75220809e+00
  1.11165552e+00  1.63880209e+00  5.75220809e+00  1.11165552e+00  1.63880209e+00
  5.75220809e+00  1.11165552e+00  1.63880209e+00  7.74351217e+00  8.89021063e-01
  3.29530430e+00  7.74351217e+00  8.89021063e-01  3.29530430e+00  7.74351217e+00
  8.89021063e-01  3.29530430e+00  7.74351217e+00  8.89021063e-01  3.29530430e+00
  7.74351217e+00  8.89021063e-01  3.29530430e+00  7.74351217e+00  8.89021063e-01
  3.29530430e+00  7.74351217e+00  8.89021063e-01  3.29530430e+00  7.74351217e+00
  8.89021063e-01  3.29530430e+00  6.17171178e+00  2.45010963e+00 -5.96505016e-01
  6.17171178e+00  2.45010963e+00 -5.96505016e-01  6.17171178e+00  2.45010963e+00
 -5.96505016e-01  6.17171178e+00  2.45010963e+00 -5.96505016e-01  6.17171178e+00
  2.45010963e+00 -5.96505016e-01  6.17171178e+00  2.45010963e+00 -5.96505016e-01
  6.17171178e+00  2.45010963e+00 -5.96505016e-01  6.17171178e+00  2.45010963e+00
 -5.96505016e-01 -6.46520708e-01 -3.82565266e+00 -3.00491877e+00 -6.46520708e-01
 -3.82565266e+00 -3.00491877e+00 -6.46520708e-01 -3.82565266e+00 -3.00491877e+00
 -6.46520708e-01 -3.82565266e+00 -3.00491877e+00 -6.46520708e-01 -3.82565266e+00
 -3.00491877e+00 -6.46520708e-01 -3.82565266e+00 -3.00491877e+00 -6.46520708e-01
 -3.82565266e+00 -3.00491877e+00 -6.46520708e-01 -3.82565266e+00 -3.00491877e+00
 -2.40626075e+00 -2.22438178e+00 -4.43975251e+00 -2.40626075e+00 -2.22438178e+00
 -4.43975251e+00 -2.40626075e+00 -2.22438178e+00 -4.43975251e+00 -2.40626075e+00
 -2.22438178e+00 -4.43975251e+00 -2.40626075e+00 -2.22438178e+00 -4.43975251e+00
 -2.40626075e+00 -2.22438178e+00 -4.43975251e+00 -2.40626075e+00 -2.22438178e+00
 -4.43975251e+00 -2.40626075e+00 -2.22438178e+00 -4.43975251e+00 -2.63638516e+00
  3.68990336e-01 -3.44765643e+00 -2.63638516e+00  3.68990336e-01 -3.44765643e+00
 -2.63638516e+00  3.68990336e-01 -3.44765643e+00 -2.63638516e+00  3.68990336e-01
 -3.44765643e+00 -2.63638516e+00  3.68990336e-01 -3.44765643e+00 -2.63638516e+00
  3.68990336e-01 -3.44765643e+00 -2.63638516e+00  3.68990336e-01 -3.44765643e+00
 -2.63638516e+00  3.68990336e-01 -3.44765643e+00 -5.95817435e+00 -2.91005860e-01
  9.13847183e-02 -5.95817435e+00 -2.91005860e-01  9.13847183e-02 -5.95817435e+00