Generated by Psi4
     FORCE                           RHF                       TESTBAS
Number of atoms                            I               31
Charge                                     I                0
Multiplicity                               I                1
Number of electrons                        I              104
Number of alpha electrons                  I               52
Number of beta electrons                   I               52
Number of basis functions                  I              300
Number of independent functions            I              300
Atomic numbers                             I   N=          31
           6           6           8           6           6           6
           6           6           7           6           6           6
           1           1           1           1           1           1
           1           1           1           1           6           1
           1           1           1           6           1           1
           1
Nuclear charges                            R   N=          31
  6.00000000e+00  6.00000000e+00  8.00000000e+00  6.00000000e+00  6.00000000e+00
  6.00000000e+00  6.00000000e+00  6.00000000e+00  7.00000000e+00  6.00000000e+00
  6.00000000e+00  6.00000000e+00  1.00000000e+00  1.00000000e+00  1.00000000e+00
  1.00000000e+00  1.00000000e+00  1.00000000e+00  1.00000000e+00  1.00000000e+00
  1.00000000e+00  1.00000000e+00  6.00000000e+00  1.00000000e+00  1.00000000e+00
  1.00000000e+00  1.00000000e+00  6.00000000e+00  1.00000000e+00  1.00000000e+00
  1.00000000e+00
Current cartesian coordinates              R   N=          93
 -5.30235217e+00 -6.95997864e-01  2.22615726e+00 -3.86313610e+00  1.62228876e+00
  3.14567935e+00 -1.19322197e+00  1.30420167e+00  2.82502098e+00 -4.42674396e-01
 -5.69536873e-01  1.01074125e+00  4.08365933e+00 -1.96987194e+00  3.39439923e-01
  2.28540987e+00 -2.93834232e-02  3.22596329e-01  6.59286136e+00 -1.49656938e+00
 -3.39666274e-01  7.33647693e+00  9.40286959e-01 -1.02947154e+00 -4.84469580e+00
 -1.21631572e+00 -4.66792752e-01 -2.23991945e+00 -5.89216832e-01 -1.29709661e+00
  3.05328313e+00  2.41467133e+00 -3.54737528e-01  5.55820432e+00  2.89649081e+00
 -1.02839363e+00  6.12685474e+00  4.80297198e+00 -1.54236926e+00  9.28796494e+00
  1.31779259e+00 -1.54895346e+00 -4.18719372e+00  1.95843073e+00  5.16468587e+00
 -4.47623252e+00  3.31783145e+00  2.10686987e+00  3.52120769e+00 -3.86847089e+00
  8.93523888e-01 -4.74627166e+00 -2.34247926e+00  3.36087095e+00 -7.33418581e+00
 -4.30356889e-01  2.52207162e+00 -5.26611625e-01 -2.45435333e+00  1.89134387e+00
  1.68693556e+00  3.94588954e+00 -3.15735970e-01  7.96393730e+00 -3.02651108e+00
 -3.12768884e-01 -1.37600860e+00 -2.45556385e+00 -3.33831948e+00 -2.19468998e+00
  1.34397886e+00 -2.09716395e+00 -1.15985946e+00 -4.35441174e+00 -2.53787315e+00
  4.24269122e-01 -1.87816177e+00 -4.17740640e+00 -2.77897587e+00 -2.57489194e+00
 -4.85429421e+00 -6.74620259e+00 -8.11023089e-02 -2.10981723e+00 -8.62158918e+00
 -7.98002617e-01 -1.60633066e+00 -6.38554736e+00 -6.08110962e-01 -4.07655169e+00
 -6.79111840e+00  2.01094217e+00 -2.01315004e+00
Integer atomic weights                     I   N=          31
          12          12          15          12          12          12
          12          12          14          12          12          12
           1           1           1           1           1           1
           1           1           1           1          12           1
           1           1           1          12           1           1
           1
Real atomic weights                        R   N=          31
  1.20000000e+01  1.20000000e+01  1.59949146e+01  1.20000000e+01  1.20000000e+01
  1.20000000e+01  1.20000000e+01  1.20000000e+01  1.40030740e+01  1.20000000e+01
  1.20000000e+01  1.20000000e+01  1.00782503e+00  1.00782503e+00  1.00782503e+00
  1.00782503e+00  1.00782503e+00  1.00782503e+00  1.00782503e+00  1.00782503e+00
  1.00782503e+00  1.00782503e+00  1.20000000e+01  1.00782503e+00  1.00782503e+00
  1.00782503e+00  1.00782503e+00  1.20000000e+01  1.00782503e+00  1.00782503e+00
  1.00782503e+00
Number of primitive shells                 I              306
Number of contracted shells                I              146
Pure/Cartesian d shells                    I                1
Pure/Cartesian f shells                    I                1
Highest angular momentum                   I                2
Largest degree of contraction              I                6
Shell types                                I   N=         146
           0           0           1           0           1           2
           0           1           0           0           1           0
           1           2           0           1           0           0
           1           0           1           2           0           1
           0           0           1           0           1           2
           0           1           0           0           1           0
           1           2           0           1           0           0
           1           0           1           2           0           1
           0           0           1           0           1           2
           0           1           0           0           1           0
           1           2           0           1           0           0
           1           0           1           2           0           1
           0           0           1           0           1           2
           0           1           0           0           1           0
           1           2           0           1           0           0
           1           0           1           2           0           1
           0           0           0           0           0           0
           0           0           0           0           0           0
           0           0           0           0           0           0
           0           0           0           0           1           0
           1           2           0           1           0           0
           0           0           0           0           0           0
           0           0           1           0           1           2
           0           1           0           0           0           0
           0           0
Number of primitives per shell             I   N=         146
           6           3           3           1           1           1
           1           1           6           3           3           1
           1           1           1           1           6           3
           3           1           1           1           1           1
           6           3           3           1           1           1
           1           1           6           3           3           1
           1           1           1           1           6           3
           3           1           1           1           1           1
           6           3           3           1           1           1
           1           1           6           3           3           1
           1           1           1           1           6           3
           3           1           1           1           1           1
           6           3           3           1           1           1
           1           1           6           3           3           1
           1           1           1           1           6           3
           3           1           1           1           1           1
           3           1           3           1           3           1
           3           1           3           1           3           1
           3           1           3           1           3           1
           3           1           6           3           3           1
           1           1           1           1           3           1
           3           1           3           1           3           1
           6           3           3           1           1           1
           1           1           3           1           3           1
           3           1
Shell to atom map                          I   N=         146
           1           1           1           1           1           1
           1           1           2           2           2           2
           2           2           2           2           3           3
           3           3           3           3           3           3
           4           4           4           4           4           4
           4           4           5           5           5           5
           5           5           5           5           6           6
           6           6           6           6           6           6
           7           7           7           7           7           7
           7           7           8           8           8           8
           8           8           8           8           9           9
           9           9           9           9           9           9
          10          10          10          10          10          10
          10          10          11          11          11          11
          11          11          11          11          12          12
          12          12          12          12          12          12
          13          13          14          14          15          15
          16          16          17          17          18          18
          19          19          20          20          21          21
          22          22          23          23          23          23
          23          23          23          23          24          24
          25          25          26          26          27          27
          28          28          28          28          28          28
          28          28          29          29          30          30
          31          31
Primitive exponents                        R   N=         306
  3.04752490e+03  4.57369510e+02  1.03948690e+02  2.92101550e+01  9.28666300e+00
  3.16392700e+00  7.86827240e+00  1.88128850e+00  5.44249300e-01  7.86827240e+00
  1.88128850e+00  5.44249300e-01  1.68714400e-01  1.68714400e-01  8.00000000e-01
  4.38000000e-02  4.38000000e-02  3.04752490e+03  4.57369510e+02  1.03948690e+02
  2.92101550e+01  9.28666300e+00  3.16392700e+00  7.86827240e+00  1.88128850e+00
  5.44249300e-01  7.86827240e+00  1.88128850e+00  5.44249300e-01  1.68714400e-01
  1.68714400e-01  8.00000000e-01  4.38000000e-02  4.38000000e-02  5.48467170e+03
  8.25234950e+02  1.88046960e+02  5.29645000e+01  1.68975700e+01  5.79963530e+00
  1.55396160e+01  3.59993360e+00  1.01376180e+00  1.55396160e+01  3.59993360e+00
  1.01376180e+00  2.70005800e-01  2.70005800e-01  8.00000000e-01  8.45000000e-02
  8.45000000e-02  3.04752490e+03  4.57369510e+02  1.03948690e+02  2.92101550e+01
  9.28666300e+00  3.16392700e+00  7.86827240e+00  1.88128850e+00  5.44249300e-01
  7.86827240e+00  1.88128850e+00  5.44249300e-01  1.68714400e-01  1.68714400e-01
  8.00000000e-01  4.38000000e-02  4.38000000e-02  3.04752490e+03  4.57369510e+02
  1.03948690e+02  2.92101550e+01  9.28666300e+00  3.16392700e+00  7.86827240e+00
  1.88128850e+00  5.44249300e-01  7.86827240e+00  1.88128850e+00  5.44249300e-01
  1.68714400e-01  1.68714400e-01  8.00000000e-01  4.38000000e-02  4.38000000e-02
  3.04752490e+03  4.57369510e+02  1.03948690e+02  2.92101550e+01  9.28666300e+00
  3.16392700e+00  7.86827240e+00  1.88128850e+00  5.44249300e-01  7.86827240e+00
  1.88128850e+00  5.44249300e-01  1.68714400e-01  1.68714400e-01  8.00000000e-01
  4.38000000e-02  4.38000000e-02  3.04752490e+03  4.57369510e+02  1.03948690e+02
  2.92101550e+01  9.28666300e+00  3.16392700e+00  7.86827240e+00  1.88128850e+00
  5.44249300e-01  7.86827240e+00  1.88128850e+00  5.44249300e-01  1.68714400e-01
  1.68714400e-01  8.00000000e-01  4.38000000e-02  4.38000000e-02  3.04752490e+03
  4.57369510e+02  1.03948690e+02  2.92101550e+01  9.28666300e+00  3.16392700e+00
  7.86827240e+00  1.88128850e+00  5.44249300e-01  7.86827240e+00  1.88128850e+00
  5.44249300e-01  1.68714400e-01  1.68714400e-01  8.00000000e-01  4.38000000e-02
  4.38000000e-02  4.17351100e+03  6.27457900e+02  1.42902100e+02  4.02343300e+01
  1.28202100e+01  4.39043700e+00  1.16263580e+01  2.71628000e+00  7.72218000e-01
  1.16263580e+01  2.71628000e+00  7.72218000e-01  2.12031300e-01  2.12031300e-01
  8.00000000e-01  6.39000000e-02  6.39000000e-02  3.04752490e+03  4.57369510e+02
  1.03948690e+02  2.92101550e+01  9.28666300e+00  3.16392700e+00  7.86827240e+00
  1.88128850e+00  5.44249300e-01  7.86827240e+00  1.88128850e+00  5.44249300e-01
  1.68714400e-01  1.68714400e-01  8.00000000e-01  4.38000000e-02  4.38000000e-02
  3.04752490e+03  4.57369510e+02  1.03948690e+02  2.92101550e+01  9.28666300e+00
  3.16392700e+00  7.86827240e+00  1.88128850e+00  5.44249300e-01  7.86827240e+00
  1.88128850e+00  5.44249300e-01  1.68714400e-01  1.68714400e-01  8.00000000e-01
  4.38000000e-02  4.38000000e-02  3.04752490e+03  4.57369510e+02  1.03948690e+02
  2.92101550e+01  9.28666300e+00  3.16392700e+00  7.86827240e+00  1.88128850e+00
  5.44249300e-01  7.86827240e+00  1.88128850e+00  5.44249300e-01  1.68714400e-01
  1.68714400e-01  8.00000000e-01  4.38000000e-02  4.38000000e-02  1.87311370e+01
  2.82539370e+00  6.40121700e-01  1.61277800e-01  1.87311370e+01  2.82539370e+00
  6.40121700e-01  1.61277800e-01  1.87311370e+01  2.82539370e+00  6.40121700e-01
  1.61277800e-01  1.87311370e+01  2.82539370e+00  6.40121700e-01  1.61277800e-01
  1.87311370e+01  2.82539370e+00  6.40121700e-01  1.61277800e-01  1.87311370e+01
  2.82539370e+00  6.40121700e-01  1.61277800e-01  1.87311370e+01  2.82539370e+00
  6.40121700e-01  1.61277800e-01  1.87311370e+01  2.82539370e+00  6.40121700e-01
  1.61277800e-01  1.87311370e+01  2.82539370e+00  6.40121700e-01  1.61277800e-01
  1.87311370e+01  2.82539370e+00  6.40121700e-01  1.61277800e-01  3.04752490e+03
  4.57369510e+02  1.03948690e+02  2.92101550e+01  9.28666300e+00  3.16392700e+00
  7.86827240e+00  1.88128850e+00  5.44249300e-01  7.86827240e+00  1.88128850e+00
  5.44249300e-01  1.68714400e-01  1.68714400e-01  8.00000000e-01  4.38000000e-02
  4.38000000e-02  1.87311370e+01  2.82539370e+00  6.40121700e-01  1.61277800e-01
  1.87311370e+01  2.82539370e+00  6.40121700e-01  1.61277800e-01  1.87311370e+01
  2.82539370e+00  6.40121700e-01  1.61277800e-01  1.87311370e+01  2.82539370e+00
  6.40121700e-01  1.61277800e-01  3.04752490e+03  4.57369510e+02  1.03948690e+02
  2.92101550e+01  9.28666300e+00  3.16392700e+00  7.86827240e+00  1.88128850e+00
  5.44249300e-01  7.86827240e+00  1.88128850e+00  5.44249300e-01  1.68714400e-01
  1.68714400e-01  8.00000000e-01  4.38000000e-02  4.38000000e-02  1.87311370e+01
  2.82539370e+00  6.40121700e-01  1.61277800e-01  1.87311370e+01  2.82539370e+00
  6.40121700e-01  1.61277800e-01  1.87311370e+01  2.82539370e+00  6.40121700e-01
  1.61277800e-01
Contraction coefficients                   R   N=         306
  1.83470016e-03  1.40373012e-02  6.88426061e-02  2.32184421e-01  4.67941342e-01
  3.62312032e-01 -1.19332409e-01 -1.60854212e-01  1.14345648e+00  6.89990956e-02
  3.16423980e-01  7.44308252e-01  1.00000000e+00  1.00000000e+00  1.00000000e+00
  1.00000000e+00  1.00000000e+00  1.83470016e-03  1.40373012e-02  6.88426061e-02
  2.32184421e-01  4.67941342e-01  3.62312032e-01 -1.19332409e-01 -1.60854212e-01
  1.14345648e+00  6.89990956e-02  3.16423980e-01  7.44308252e-01  1.00000000e+00
  1.00000000e+00  1.00000000e+00  1.00000000e+00  1.00000000e+00  1.83109981e-03
  1.39500985e-02  6.84450927e-02  2.32714275e-01  4.70192950e-01  3.58520862e-01
 -1.10777504e-01 -1.48026305e-01  1.13076704e+00  7.08742995e-02  3.39752798e-01
  7.27158595e-01  1.00000000e+00  1.00000000e+00  1.00000000e+00  1.00000000e+00
  1.00000000e+00  1.83470016e-03  1.40373012e-02  6.88426061e-02  2.32184421e-01
  4.67941342e-01  3.62312032e-01 -1.19332409e-01 -1.60854212e-01  1.14345648e+00
  6.89990956e-02  3.16423980e-01  7.44308252e-01  1.00000000e+00  1.00000000e+00
  1.00000000e+00  1.00000000e+00  1.00000000e+00  1.83470016e-03  1.40373012e-02
  6.88426061e-02  2.32184421e-01  4.67941342e-01  3.62312032e-01 -1.19332409e-01
 -1.60854212e-01  1.14345648e+00  6.89990956e-02  3.16423980e-01  7.44308252e-01
  1.00000000e+00  1.00000000e+00  1.00000000e+00  1.00000000e+00  1.00000000e+00
  1.83470016e-03  1.40373012e-02  6.88426061e-02  2.32184421e-01  4.67941342e-01
  3.62312032e-01 -1.19332409e-01 -1.60854212e-01  1.14345648e+00  6.89990956e-02
  3.16423980e-01  7.44308252e-01  1.00000000e+00  1.00000000e+00  1.00000000e+00
  1.00000000e+00  1.00000000e+00  1.83470016e-03  1.40373012e-02  6.88426061e-02
  2.32184421e-01  4.67941342e-01  3.62312032e-01 -1.19332409e-01 -1.60854212e-01
  1.14345648e+00  6.89990956e-02  3.16423980e-01  7.44308252e-01  1.00000000e+00
  1.00000000e+00  1.00000000e+00  1.00000000e+00  1.00000000e+00  1.83470016e-03
  1.40373012e-02  6.88426061e-02  2.32184421e-01  4.67941342e-01  3.62312032e-01
 -1.19332409e-01 -1.60854212e-01  1.14345648e+00  6.89990956e-02  3.16423980e-01
  7.44308252e-01  1.00000000e+00  1.00000000e+00  1.00000000e+00  1.00000000e+00
  1.00000000e+00  1.83479944e-03  1.39949958e-02  6.85869792e-02  2.32240930e-01
  4.69069858e-01  3.60454891e-01 -1.14961023e-01 -1.69118034e-01  1.14585223e+00
  6.75800232e-02  3.23907111e-01  7.40895255e-01  1.00000000e+00  1.00000000e+00
  1.00000000e+00  1.00000000e+00  1.00000000e+00  1.83470016e-03  1.40373012e-02
  6.88426061e-02  2.32184421e-01  4.67941342e-01  3.62312032e-01 -1.19332409e-01
 -1.60854212e-01  1.14345648e+00  6.89990956e-02  3.16423980e-01  7.44308252e-01
  1.00000000e+00  1.00000000e+00  1.00000000e+00  1.00000000e+00  1.00000000e+00
  1.83470016e-03  1.40373012e-02  6.88426061e-02  2.32184421e-01  4.67941342e-01
  3.62312032e-01 -1.19332409e-01 -1.60854212e-01  1.14345648e+00  6.89990956e-02
  3.16423980e-01  7.44308252e-01  1.00000000e+00  1.00000000e+00  1.00000000e+00
  1.00000000e+00  1.00000000e+00  1.83470016e-03  1.40373012e-02  6.88426061e-02
  2.32184421e-01  4.67941342e-01  3.62312032e-01 -1.19332409e-01 -1.60854212e-01
  1.14345648e+00  6.89990956e-02  3.16423980e-01  7.44308252e-01  1.00000000e+00
  1.00000000e+00  1.00000000e+00  1.00000000e+00  1.00000000e+00  3.34945995e-02
  2.34726947e-01  8.13757318e-01  1.00000000e+00  3.34945995e-02  2.34726947e-01
  8.13757318e-01  1.00000000e+00  3.34945995e-02  2.34726947e-01  8.13757318e-01
  1.00000000e+00  3.34945995e-02  2.34726947e-01  8.13757318e-01  1.00000000e+00
  3.34945995e-02  2.34726947e-01  8.13757318e-01  1.00000000e+00  3.34945995e-02
  2.34726947e-01  8.13757318e-01  1.00000000e+00  3.34945995e-02  2.34726947e-01
  8.13757318e-01  1.00000000e+00  3.34945995e-02  2.34726947e-01  8.13757318e-01
  1.00000000e+00  3.34945995e-02  2.34726947e-01  8.13757318e-01  1.00000000e+00
  3.34945995e-02  2.34726947e-01  8.13757318e-01  1.00000000e+00  1.83470016e-03
  1.40373012e-02  6.88426061e-02  2.32184421e-01  4.67941342e-01  3.62312032e-01
 -1.19332409e-01 -1.60854212e-01  1.14345648e+00  6.89990956e-02  3.16423980e-01
  7.44308252e-01  1.00000000e+00  1.00000000e+00  1.00000000e+00  1.00000000e+00
  1.00000000e+00  3.34945995e-02  2.34726947e-01  8.13757318e-01  1.00000000e+00
  3.34945995e-02  2.34726947e-01  8.13757318e-01  1.00000000e+00  3.34945995e-02
  2.34726947e-01  8.13757318e-01  1.00000000e+00  3.34945995e-02  2.34726947e-01
  8.13757318e-01  1.00000000e+00  1.83470016e-03  1.40373012e-02  6.88426061e-02
  2.32184421e-01  4.67941342e-01  3.62312032e-01 -1.19332409e-01 -1.60854212e-01
  1.14345648e+00  6.89990956e-02  3.16423980e-01  7.44308252e-01  1.00000000e+00
  1.00000000e+00  1.00000000e+00  1.00000000e+00  1.00000000e+00  3.34945995e-02
  2.34726947e-01  8.13757318e-01  1.00000000e+00  3.34945995e-02  2.34726947e-01
  8.13757318e-01  1.00000000e+00  3.34945995e-02  2.34726947e-01  8.13757318e-01
  1.00000000e+00
Coordinates of each shell                  R   N=         438
 -5.30235217e+00 -6.95997864e-01  2.22615726e+00 -5.30235217e+00 -6.95997864e-01
  2.22615726e+00 -5.30235217e+00 -6.95997864e-01  2.22615726e+00 -5.30235217e+00
 -6.95997864e-01  2.22615726e+00 -5.30235217e+00 -6.95997864e-01  2.22615726e+00
 -5.30235217e+00 -6.95997864e-01  2.22615726e+00 -5.30235217e+00 -6.95997864e-01
  2.22615726e+00 -5.30235217e+00 -6.95997864e-01  2.22615726e+00 -3.86313610e+00
  1.62228876e+00  3.14567935e+00 -3.86313610e+00  1.62228876e+00  3.14567935e+00
 -3.86313610e+00  1.62228876e+00  3.14567935e+00 -3.86313610e+00  1.62228876e+00
  3.14567935e+00 -3.86313610e+00  1.62228876e+00  3.14567935e+00 -3.86313610e+00
  1.62228876e+00  3.14567935e+00 -3.86313610e+00  1.62228876e+00  3.14567935e+00
 -3.86313610e+00  1.62228876e+00  3.14567935e+00 -1.19322197e+00  1.30420167e+00
  2.82502098e+00 -1.19322197e+00  1.30420167e+00  2.82502098e+00 -1.19322197e+00
  1.30420167e+00  2.82502098e+00 -1.19322197e+00  1.30420167e+00  2.82502098e+00
 -1.19322197e+00  1.30420167e+00  2.82502098e+00 -1.19322197e+00  1.30420167e+00
  2.82502098e+00 -1.19322197e+00  1.30420167e+00  2.82502098e+00 -1.19322197e+00
  1.30420167e+00  2.82502098e+00 -4.42674396e-01 -5.69536873e-01  1.01074125e+00
 -4.42674396e-01 -5.69536873e-01  1.01074125e+00 -4.42674396e-01 -5.69536873e-01
  1.01074125e+00 -4.42674396e-01 -5.69536873e-01  1.01074125e+00 -4.42674396e-01
 -5.69536873e-01  1.01074125e+00 -4.42674396e-01 -5.69536873e-01  1.01074125e+00
 -4.42674396e-01 -5.69536873e-01  1.01074125e+00 -4.42674396e-01 -5.69536873e-01
  1.01074125e+00  4.08365933e+00 -1.96987194e+00  3.39439923e-01  4.08365933e+00
 -1.96987194e+00  3.39439923e-01  4.08365933e+00 -1.96987194e+00  3.39439923e-01
  4.08365933e+00 -1.96987194e+00  3.39439923e-01  4.08365933e+00 -1.96987194e+00
  3.39439923e-01  4.08365933e+00 -1.96987194e+00  3.39439923e-01  4.08365933e+00
 -1.96987194e+00  3.39439923e-01  4.08365933e+00 -1.96987194e+00  3.39439923e-01
  2.28540987e+00 -2.93834232e-02  3.22596329e-01  2.28540987e+00 -2.93834232e-02
  3.22596329e-01  2.28540987e+00 -2.93834232e-02  3.22596329e-01  2.28540987e+00
 -2.93834232e-02  3.22596329e-01  2.28540987e+00 -2.93834232e-02  3.22596329e-01
  2.28540987e+00 -2.93834232e-02  3.22596329e-01  2.28540987e+00 -2.93834232e-02
  3.22596329e-01  2.28540987e+00 -2.93834232e-02  3.22596329e-01  6.59286136e+00
 -1.49656938e+00 -3.39666274e-01  6.59286136e+00 -1.49656938e+00 -3.39666274e-01
  6.59286136e+00 -1.49656938e+00 -3.39666274e-01  6.59286136e+00 -1.49656938e+00
 -3.39666274e-01  6.59286136e+00 -1.49656938e+00 -3.39666274e-01  6.59286136e+00
 -1.49656938e+00 -3.39666274e-01  6.59286136e+00 -1.49656938e+00 -3.39666274e-01
  6.59286136e+00 -1.49656938e+00 -3.39666274e-01  7.33647693e+00  9.40286959e-01
 -1.02947154e+00  7.33647693e+00  9.40286959e-01 -1.02947154e+00  7.33647693e+00
  9.40286959e-01 -1.02947154e+00  7.33647693e+00  9.40286959e-01 -1.02947154e+00
  7.33647693e+00  9.40286959e-01 -1.02947154e+00  7.33647693e+00  9.40286959e-01
 -1.02947154e+00  7.33647693e+00  9.40286959e-01 -1.02947154e+00  7.33647693e+00
  9.40286959e-01 -1.02947154e+00 -4.84469580e+00 -1.21631572e+00 -4.66792752e-01
 -4.84469580e+00 -1.21631572e+00 -4.66792752e-01 -4.84469580e+00 -1.21631572e+00
 -4.66792752e-01 -4.84469580e+00 -1.21631572e+00 -4.66792752e-01 -4.84469580e+00
 -1.21631572e+00 -4.66792752e-01 -4.84469580e+00 -1.21631572e+00 -4.66792752e-01
 -4.84469580e+00 -1.21631572e+00 -4.66792752e-01 -4.84469580e+00 -1.21631572e+00
 -4.66792752e-01 -2.23991945e+00 -5.89216832e-01 -1.29709661e+00 -2.23991945e+00
 -5.89216832e-01 -1.29709661e+00 -2.23991945e+00 -5.89216832e-01 -1.29709661e+00
 -2.23991945e+00 -5.89216832e-01 -1.29709661e+00 -2.23991945e+00 -5.89216832e-01
 -1.29709661e+00 -2.23991945e+00 -5.89216832e-01 -1.29709661e+00 -2.23991945e+00
 -5.89216832e-01 -1.29709661e+00 -2.23991945e+00 -5.89216832e-01 -1.29709661e+00
  3.05328313e+00  2.41467133e+00 -3.54737528e-01  3.05328313e+00  2.41467133e+00
 -3.54737528e-01  3.05328313e+00  2.41467133e+00 -3.54737528e-01  3.05328313e+00
  2.41467133e+00 -3.54737528e-01  3.05328313e+00  2.41467133e+00 -3.54737528e-01
  3.05328313e+00  2.41467133e+00 -3.54737528e-01  3.05328313e+00  2.41467133e+00
 -3.54737528e-01  3.05328313e+00  2.41467133e+00 -3.54737528e-01  5.55820432e+00
  2.89649081e+00 -1.02839363e+00  5.55820432e+00  2.89649081e+00 -1.02839363e+00
  5.55820432e+00  2.89649081e+00 -1.02839363e+00  5.55820432e+00  2.89649081e+00
 -1.02839363e+00  5.55820432e+00  2.89649081e+00 -1.02839363e+00  5.55820432e+00
  2.89649081e+00 -1.02839363e+00  5.55820432e+00  2.89649081e+00 -1.02839363e+00
  5.55820432e+00  2.89649081e+00 -1.02839363e+00  6.12685474e+00  4.80297198e+00
 -1.54236926e+00  6.12685474e+00  4.80297198e+00 -1.54236926e+00  9.28796494e+00
  1.31779259e+00 -1.54895346e+00  9.28796494e+00  1.31779259e+00 -1.54895346e+00
 -4.18719372e+00  1.95843073e+00  5.16468587e+00 -4.18719372e+00  1.95843073e+00
  5.16468587e+00 -4.47623252e+00  3.31783145e+00  2.10686987e+00 -4.47623252e+00
  3.31783145e+00  2.10686987e+00  3.52120769e+00 -3.86847089e+00  8.93523888e-01
  3.52120769e+00 -3.86847089e+00  8.93523888e-01 -4.74627166e+00 -2.34247926e+00
  3.36087095e+00 -4.74627166e+00 -2.34247926e+00  3.36087095e+00 -7.33418581e+00
 -4.30356889e-01  2.52207162e+00 -7.33418581e+00 -4.30356889e-01  2.52207162e+00
 -5.26611625e-01 -2.45435333e+00  1.89134387e+00 -5.26611625e-01 -2.45435333e+00
  1.89134387e+00  1.68693556e+00  3.94588954e+00 -3.15735970e-01  1.68693556e+00
  3.94588954e+00 -3.15735970e-01  7.96393730e+00 -3.02651108e+00 -3.12768884e-01
  7.96393730e+00 -3.02651108e+00 -3.12768884e-01 -1.37600860e+00 -2.45556385e+00
 -3.33831948e+00 -1.37600860e+00 -2.45556385e+00 -3.33831948e+00 -1.37600860e+00
 -2.45556385e+00 -3.33831948e+00 -1.37600860e+00 -2.45556385e+00 -3.33831948e+00
 -1.37600860e+00 -2.45556385e+00 -3.33831948e+00 -1.37600860e+00 -2.45556385e+00
 -3.33831948e+00 -1.37600860e+00 -2.45556385e+00 -3.33831948e+00 -1.37600860e+00
 -2.45556385e+00 -3.33831948e+00 -2.19468998e+00  1.34397886e+00 -2.09716395e+00
 -2.19468998e+00  1.34397886e+00 -2.09716395e+00 -1.15985946e+00 -4.35441174e+00
 -2.53787315e+00 -1.15985946e+00 -4.35441174e+00 -2.53787315e+00  4.24269122e-01
 -1.87816177e+00 -4.17740640e+00  4.24269122e-01 -1.87816177e+00 -4.17740640e+00
 -2.77897587e+00 -2.57489194e+00 -4.85429421e+00 -2.77897587e+00 -2.57489194e+00
 -4.85429421e+00 -6.74620259e+00 -8.11023089e-02 -2.10981723e+00 -6.74620259e+00
 -8.11023089e-02 -2.10981723e+00 -6.74620259e+00 -8.11023089e-02 -2.10981723e+00
 -6.74620259e+00 -8.11023089e-02 -2.10981723e+00 -6.74620259e+00 -8.11023089e-02
 -2.10981723e+00 -6.74620259e+00 -8.11023089e-02 -2.10981723e+00 -6.74620259e+00
 -8.11023089e-02 -2.10981723e+00 -6.74620259e+00 -8.11023089e-02 -2.10981723e+00
 -8.62158918e+00 -7.98002617e-01 -1.60633066e+00 -8.62158918e+00 -7.98002617e-01
 -1.60633066e+00 -6.38554736e+00 -6.08110962e-01 -4.07655169e+00 -6.38554736e+00
 -6.08110962e-01 -4.07655169e+00 -6.79111840e+00  2.01094217e+00 -2.01315004e+00
 -6.79111840e+00  2.01094217e+00 -2.01315004e+00
Total Energy                               R     -5.974807266025847e+02
Alpha Orbital Energies                     R   N=         300
 -1.91535782e+01 -1.43337968e+01 -1.02461775e+01 -1.02348805e+01 -1.02230397e+01
 -1.02170716e+01 -1.02103690e+01 -1.02002084e+01 -1.01962672e+01 -1.01957333e+01
 -1.01952516e+01 -1.01951264e+01 -1.01924826e+01 -1.01765780e+01 -1.03585823e+00
 -9.23591928e-01 -8.59988110e-01 -7.99804890e-01 -7.49431198e-01 -7.47358236e-01
 -7.37142002e-01 -6.96855322e-01 -6.51992586e-01 -6.30967697e-01 -6.10457844e-01
 -5.91737253e-01 -5.43290497e-01 -5.24522895e-01 -5.05738370e-01 -4.97961089e-01
 -4.84940358e-01 -4.57044356e-01 -4.54264897e-01 -4.38018498e-01 -4.27181401e-01
 -4.24216667e-01 -4.21867947e-01 -4.12795608e-01 -4.05422962e-01 -3.94606307e-01
 -3.83405826e-01 -3.72882597e-01 -3.64431231e-01 -3.60242618e-01 -3.52492945e-01
 -3.46347896e-01 -3.40965366e-01 -3.08683363e-01 -2.62966967e-01 -2.54851370e-01
 -2.45145696e-01 -2.15509462e-01 -1.59691631e-02 -1.24239812e-02  1.10766360e-03
  8.35301427e-03  1.36396470e-02  1.83983941e-02  2.91079849e-02  3.35215295e-02
  3.90995179e-02  4.55642624e-02  4.86186390e-02  5.15915598e-02  5.66163571e-02
  6.07995591e-02  7.00044182e-02  7.39003713e-02  7.84267215e-02  8.18320368e-02
  8.79778487e-02  9.04951646e-02  9.61583480e-02  1.00728061e-01  1.05671207e-01
  1.14644791e-01  1.20009337e-01  1.24375792e-01  1.30083743e-01  1.35338973e-01
  1.39259943e-01  1.44725757e-01  1.45013765e-01  1.50909941e-01  1.55044039e-01
  1.59121703e-01  1.64972685e-01  1.70771890e-01  1.72487558e-01  1.78609642e-01
  1.83247415e-01  1.90000915e-01  1.90901567e-01  1.97735682e-01  2.01391127e-01
  2.06519564e-01  2.08175104e-01  2.11591086e-01  2.15392664e-01  2.17264900e-01
  2.22571944e-01  2.24182846e-01  2.28474633e-01  2.31074716e-01  2.38026079e-01
  2.40856422e-01  2.49181016e-01  2.51665825e-01  2.56439849e-01  2.62288518e-01
  2.63201471e-01  2.73363879e-01  2.74227774e-01  2.80342867e-01  2.82747026e-01
  2.87499722e-01  2.93085017e-01  2.98205565e-01  3.01783889e-01  3.09375963e-01
  3.16058200e-01  3.20195369e-01  3.23312557e-01  3.34677622e-01  3.37922966e-01
  3.49784307e-01  3.55147030e-01  3.58510390e-01  3.72732729e-01  3.76309812e-01
  3.77384664e-01  3.84158193e-01  3.97193557e-01  4.05741351e-01  4.18128901e-01
  4.24192617e-01  4.31548699e-01  4.48034613e-01  4.64955428e-01  4.81839066e-01
  5.01130102e-01  5.82399380e-01  6.08661383e-01  6.40522584e-01  6.52720874e-01
  6.69254147e-01  6.78202084e-01  6.87278750e-01  6.92678006e-01  6.99965942e-01
  7.12320135e-01  7.19818920e-01  7.24863444e-01  7.31619101e-01  7.38359457e-01
  7.50401473e-01  7.53090190e-01  7.57513926e-01  7.70994889e-01  7.84369286e-01