Generated by Psi4
     FORCE                           RHF                       TESTBAS
Number of atoms                            I               33
Charge                                     I                0
Multiplicity                               I                1
Number of electrons                        I              118
Number of alpha electrons                  I               59
Number of beta electrons                   I               59
Number of basis functions                  I              338
Number of independent functions            I              338
Atomic numbers                             I   N=          33
           7           6           6           6           6           6
           1           1           1           1           1           1
           1           1           6           6           6           6
           6           6           6           1           1           1
           1           8           1           8           6           1
           1           1           1
Nuclear charges                            R   N=          33
  7.00000000e+00  6.00000000e+00  6.00000000e+00  6.00000000e+00  6.00000000e+00
  6.00000000e+00  1.00000000e+00  1.00000000e+00  1.00000000e+00  1.00000000e+00
  1.00000000e+00  1.00000000e+00  1.00000000e+00  1.00000000e+00  6.00000000e+00
  6.00000000e+00  6.00000000e+00  6.00000000e+00  6.00000000e+00  6.00000000e+00
  6.00000000e+00  1.00000000e+00  1.00000000e+00  1.00000000e+00  1.00000000e+00
  8.00000000e+00  1.00000000e+00  8.00000000e+00  6.00000000e+00  1.00000000e+00
  1.00000000e+00  1.00000000e+00  1.00000000e+00
Current cartesian coordinates              R   N=          99
 -2.99633007e+00 -4.52692496e+00  2.44588993e+00 -4.96729728e-01 -3.56283528e+00
  3.16079680e+00  1.05795022e+00 -2.89224165e+00  8.20355864e-01 -8.71063169e-02
 -6.04233294e-01 -6.56647846e-01 -4.02371108e+00 -3.27536692e+00  1.73262077e-01
 -3.00535435e+00 -5.77123562e-01 -1.49570791e-01 -4.02012526e+00  4.09687363e-01
 -1.66432469e+00 -3.37741965e+00  4.63718504e-01  1.60044138e+00  4.86266197e-01
 -5.02343935e+00  4.25717780e+00 -6.45129799e-01 -1.88481955e+00  4.41146900e+00
 -6.08748550e+00 -3.22154283e+00  3.24770717e-01 -3.57539487e+00 -4.40518307e+00
 -1.50622754e+00  1.11607778e+00 -4.52892449e+00 -4.40225338e-01  3.00230436e+00
 -2.48874997e+00  1.39014491e+00  2.09389301e-01 -1.06815378e+00 -3.54554798e+00
  3.86905346e+00  2.08686328e+00 -1.64971616e-01  1.21967427e+00  1.90621812e+00
  3.61309515e-02 -1.03344167e-01  4.08687788e+00  7.68362491e-01  1.16840855e+00
  6.34134581e+00  1.32633359e+00  3.79282347e+00  6.47030557e+00  1.14707738e+00
  5.14062145e+00  4.32672824e+00  3.85366624e-01  7.18602110e+00  4.40107536e+00
  2.11933136e-01 -2.14775545e+00  4.06186273e+00  9.18837663e-01  8.87907401e-02
  7.99148141e+00  1.90208717e+00  4.78065178e+00  8.21729326e+00  1.58236151e+00
  4.43071005e-01 -3.12826144e+00 -4.50268410e+00  4.95533350e+00  4.55047271e-01
 -7.80769985e-01  2.80110624e-02  1.00359493e+00 -5.04989457e+00 -4.71932338e+00
 -4.55410884e+00  4.58676578e+00 -6.49641313e+00 -5.47309264e+00  4.05705085e+00
 -5.15987777e+00 -2.64370084e+00  5.33474438e+00 -3.87646824e+00 -5.64927743e+00
  6.13066087e+00  3.28168257e-02  2.53506312e+00 -4.02547892e+00
Integer atomic weights                     I   N=          33
          14          12          12          12          12          12
           1           1           1           1           1           1
           1           1          12          12          12          12
          12          12          12           1           1           1
           1          15           1          15          12           1
           1           1           1
Real atomic weights                        R   N=          33
  1.40030740e+01  1.20000000e+01  1.20000000e+01  1.20000000e+01  1.20000000e+01
  1.20000000e+01  1.00782503e+00  1.00782503e+00  1.00782503e+00  1.00782503e+00
  1.00782503e+00  1.00782503e+00  1.00782503e+00  1.00782503e+00  1.20000000e+01
  1.20000000e+01  1.20000000e+01  1.20000000e+01  1.20000000e+01  1.20000000e+01
  1.20000000e+01  1.00782503e+00  1.00782503e+00  1.00782503e+00  1.00782503e+00
  1.59949146e+01  1.00782503e+00  1.59949146e+01  1.20000000e+01  1.00782503e+00
  1.00782503e+00  1.00782503e+00  1.00782503e+00
Number of primitive shells                 I              340
Number of contracted shells                I              162
Pure/Cartesian d shells                    I                1
Pure/Cartesian f shells                    I                1
Highest angular momentum                   I                2
Largest degree of contraction              I                6
Shell types                                I   N=         162
           0           0           1           0           1           2
           0           1           0           0           1           0
           1           2           0           1           0           0
           1           0           1           2           0           1
           0           0           1           0           1           2
           0           1           0           0           1           0
           1           2           0           1           0           0
           1           0           1           2           0           1
           0           0           0           0           0           0
           0           0           0           0           0           0
           0           0           0           0           0           0
           1           0           1           2           0           1
           0           0           1           0           1           2
           0           1           0           0           1           0
           1           2           0           1           0           0
           1           0           1           2           0           1
           0           0           1           0           1           2
           0           1           0           0           1           0
           1           2           0           1           0           0
           1           0           1           2           0           1
           0           0           0           0           0           0
           0           0           0           0           1           0
           1           2           0           1           0           0
           0           0           1           0           1           2
           0           1           0           0           1           0
           1           2           0           1           0           0
           0           0           0           0           0           0
Number of primitives per shell             I   N=         162
           6           3           3           1           1           1
           1           1           6           3           3           1
           1           1           1           1           6           3
           3           1           1           1           1           1
           6           3           3           1           1           1
           1           1           6           3           3           1
           1           1           1           1           6           3
           3           1           1           1           1           1
           3           1           3           1           3           1
           3           1           3           1           3           1
           3           1           3           1           6           3
           3           1           1           1           1           1
           6           3           3           1           1           1
           1           1           6           3           3           1
           1           1           1           1           6           3
           3           1           1           1           1           1
           6           3           3           1           1           1
           1           1           6           3           3           1
           1           1           1           1           6           3
           3           1           1           1           1           1
           3           1           3           1           3           1
           3           1           6           3           3           1
           1           1           1           1           3           1
           6           3           3           1           1           1
           1           1           6           3           3           1
           1           1           1           1           3           1
           3           1           3           1           3           1
Shell to atom map                          I   N=         162
           1           1           1           1           1           1
           1           1           2           2           2           2
           2           2           2           2           3           3
           3           3           3           3           3           3
           4           4           4           4           4           4
           4           4           5           5           5           5
           5           5           5           5           6           6
           6           6           6           6           6           6
           7           7           8           8           9           9
          10          10          11          11          12          12
          13          13          14          14          15          15
          15          15          15          15          15          15
          16          16          16          16          16          16
          16          16          17          17          17          17
          17          17          17          17          18          18
          18          18          18          18          18          18
          19          19          19          19          19          19
          19          19          20          20          20          20
          20          20          20          20          21          21
          21          21          21          21          21          21
          22          22          23          23          24          24
          25          25          26          26          26          26
          26          26          26          26          27          27
          28          28          28          28          28          28
          28          28          29          29          29          29
          29          29          29          29          30          30
          31          31          32          32          33          33
Primitive exponents                        R   N=         340
  4.17351100e+03  6.27457900e+02  1.42902100e+02  4.02343300e+01  1.28202100e+01
  4.39043700e+00  1.16263580e+01  2.71628000e+00  7.72218000e-01  1.16263580e+01
  2.71628000e+00  7.72218000e-01  2.12031300e-01  2.12031300e-01  8.00000000e-01
  6.39000000e-02  6.39000000e-02  3.04752490e+03  4.57369510e+02  1.03948690e+02
  2.92101550e+01  9.28666300e+00  3.16392700e+00  7.86827240e+00  1.88128850e+00
  5.44249300e-01  7.86827240e+00  1.88128850e+00  5.44249300e-01  1.68714400e-01
  1.68714400e-01  8.00000000e-01  4.38000000e-02  4.38000000e-02  3.04752490e+03
  4.57369510e+02  1.03948690e+02  2.92101550e+01  9.28666300e+00  3.16392700e+00
  7.86827240e+00  1.88128850e+00  5.44249300e-01  7.86827240e+00  1.88128850e+00
  5.44249300e-01  1.68714400e-01  1.68714400e-01  8.00000000e-01  4.38000000e-02
  4.38000000e-02  3.04752490e+03  4.57369510e+02  1.03948690e+02  2.92101550e+01
  9.28666300e+00  3.16392700e+00  7.86827240e+00  1.88128850e+00  5.44249300e-01
  7.86827240e+00  1.88128850e+00  5.44249300e-01  1.68714400e-01  1.68714400e-01
  8.00000000e-01  4.38000000e-02  4.38000000e-02  3.04752490e+03  4.57369510e+02
  1.03948690e+02  2.92101550e+01  9.28666300e+00  3.16392700e+00  7.86827240e+00
  1.88128850e+00  5.44249300e-01  7.86827240e+00  1.88128850e+00  5.44249300e-01
  1.68714400e-01  1.68714400e-01  8.00000000e-01  4.38000000e-02  4.38000000e-02
  3.04752490e+03  4.57369510e+02  1.03948690e+02  2.92101550e+01  9.28666300e+00
  3.16392700e+00  7.86827240e+00  1.88128850e+00  5.44249300e-01  7.86827240e+00
  1.88128850e+00  5.44249300e-01  1.68714400e-01  1.68714400e-01  8.00000000e-01
  4.38000000e-02  4.38000000e-02  1.87311370e+01  2.82539370e+00  6.40121700e-01
  1.61277800e-01  1.87311370e+01  2.82539370e+00  6.40121700e-01  1.61277800e-01
  1.87311370e+01  2.82539370e+00  6.40121700e-01  1.61277800e-01  1.87311370e+01
  2.82539370e+00  6.40121700e-01  1.61277800e-01  1.87311370e+01  2.82539370e+00
  6.40121700e-01  1.61277800e-01  1.87311370e+01  2.82539370e+00  6.40121700e-01
  1.61277800e-01  1.87311370e+01  2.82539370e+00  6.40121700e-01  1.61277800e-01
  1.87311370e+01  2.82539370e+00  6.40121700e-01  1.61277800e-01  3.04752490e+03
  4.57369510e+02  1.03948690e+02  2.92101550e+01  9.28666300e+00  3.16392700e+00
  7.86827240e+00  1.88128850e+00  5.44249300e-01  7.86827240e+00  1.88128850e+00
  5.44249300e-01  1.68714400e-01  1.68714400e-01  8.00000000e-01  4.38000000e-02
  4.38000000e-02  3.04752490e+03  4.57369510e+02  1.03948690e+02  2.92101550e+01
  9.28666300e+00  3.16392700e+00  7.86827240e+00  1.88128850e+00  5.44249300e-01
  7.86827240e+00  1.88128850e+00  5.44249300e-01  1.68714400e-01  1.68714400e-01
  8.00000000e-01  4.38000000e-02  4.38000000e-02  3.04752490e+03  4.57369510e+02
  1.03948690e+02  2.92101550e+01  9.28666300e+00  3.16392700e+00  7.86827240e+00
  1.88128850e+00  5.44249300e-01  7.86827240e+00  1.88128850e+00  5.44249300e-01
  1.68714400e-01  1.68714400e-01  8.00000000e-01  4.38000000e-02  4.38000000e-02
  3.04752490e+03  4.57369510e+02  1.03948690e+02  2.92101550e+01  9.28666300e+00
  3.16392700e+00  7.86827240e+00  1.88128850e+00  5.44249300e-01  7.86827240e+00
  1.88128850e+00  5.44249300e-01  1.68714400e-01  1.68714400e-01  8.00000000e-01
  4.38000000e-02  4.38000000e-02  3.04752490e+03  4.57369510e+02  1.03948690e+02
  2.92101550e+01  9.28666300e+00  3.16392700e+00  7.86827240e+00  1.88128850e+00
  5.44249300e-01  7.86827240e+00  1.88128850e+00  5.44249300e-01  1.68714400e-01
  1.68714400e-01  8.00000000e-01  4.38000000e-02  4.38000000e-02  3.04752490e+03
  4.57369510e+02  1.03948690e+02  2.92101550e+01  9.28666300e+00  3.16392700e+00
  7.86827240e+00  1.88128850e+00  5.44249300e-01  7.86827240e+00  1.88128850e+00
  5.44249300e-01  1.68714400e-01  1.68714400e-01  8.00000000e-01  4.38000000e-02
  4.38000000e-02  3.04752490e+03  4.57369510e+02  1.03948690e+02  2.92101550e+01
  9.28666300e+00  3.16392700e+00  7.86827240e+00  1.88128850e+00  5.44249300e-01
  7.86827240e+00  1.88128850e+00  5.44249300e-01  1.68714400e-01  1.68714400e-01
  8.00000000e-01  4.38000000e-02  4.38000000e-02  1.87311370e+01  2.82539370e+00
  6.40121700e-01  1.61277800e-01  1.87311370e+01  2.82539370e+00  6.40121700e-01
  1.61277800e-01  1.87311370e+01  2.82539370e+00  6.40121700e-01  1.61277800e-01
  1.87311370e+01  2.82539370e+00  6.40121700e-01  1.61277800e-01  5.48467170e+03
  8.25234950e+02  1.88046960e+02  5.29645000e+01  1.68975700e+01  5.79963530e+00
  1.55396160e+01  3.59993360e+00  1.01376180e+00  1.55396160e+01  3.59993360e+00
  1.01376180e+00  2.70005800e-01  2.70005800e-01  8.00000000e-01  8.45000000e-02
  8.45000000e-02  1.87311370e+01  2.82539370e+00  6.40121700e-01  1.61277800e-01
  5.48467170e+03  8.25234950e+02  1.88046960e+02  5.29645000e+01  1.68975700e+01
  5.79963530e+00  1.55396160e+01  3.59993360e+00  1.01376180e+00  1.55396160e+01
  3.59993360e+00  1.01376180e+00  2.70005800e-01  2.70005800e-01  8.00000000e-01
  8.45000000e-02  8.45000000e-02  3.04752490e+03  4.57369510e+02  1.03948690e+02
  2.92101550e+01  9.28666300e+00  3.16392700e+00  7.86827240e+00  1.88128850e+00
  5.44249300e-01  7.86827240e+00  1.88128850e+00  5.44249300e-01  1.68714400e-01
  1.68714400e-01  8.00000000e-01  4.38000000e-02  4.38000000e-02  1.87311370e+01
  2.82539370e+00  6.40121700e-01  1.61277800e-01  1.87311370e+01  2.82539370e+00
  6.40121700e-01  1.61277800e-01  1.87311370e+01  2.82539370e+00  6.40121700e-01
  1.61277800e-01  1.87311370e+01  2.82539370e+00  6.40121700e-01  1.61277800e-01
Contraction coefficients                   R   N=         340
  1.83479944e-03  1.39949958e-02  6.85869792e-02  2.32240930e-01  4.69069858e-01
  3.60454891e-01 -1.14961023e-01 -1.69118034e-01  1.14585223e+00  6.75800232e-02
  3.23907111e-01  7.40895255e-01  1.00000000e+00  1.00000000e+00  1.00000000e+00
  1.00000000e+00  1.00000000e+00  1.83470016e-03  1.40373012e-02  6.88426061e-02
  2.32184421e-01  4.67941342e-01  3.62312032e-01 -1.19332409e-01 -1.60854212e-01
  1.14345648e+00  6.89990956e-02  3.16423980e-01  7.44308252e-01  1.00000000e+00
  1.00000000e+00  1.00000000e+00  1.00000000e+00  1.00000000e+00  1.83470016e-03
  1.40373012e-02  6.88426061e-02  2.32184421e-01  4.67941342e-01  3.62312032e-01
 -1.19332409e-01 -1.60854212e-01  1.14345648e+00  6.89990956e-02  3.16423980e-01
  7.44308252e-01  1.00000000e+00  1.00000000e+00  1.00000000e+00  1.00000000e+00
  1.00000000e+00  1.83470016e-03  1.40373012e-02  6.88426061e-02  2.32184421e-01
  4.67941342e-01  3.62312032e-01 -1.19332409e-01 -1.60854212e-01  1.14345648e+00
  6.89990956e-02  3.16423980e-01  7.44308252e-01  1.00000000e+00  1.00000000e+00
  1.00000000e+00  1.00000000e+00  1.00000000e+00  1.83470016e-03  1.40373012e-02
  6.88426061e-02  2.32184421e-01  4.67941342e-01  3.62312032e-01 -1.19332409e-01
 -1.60854212e-01  1.14345648e+00  6.89990956e-02  3.16423980e-01  7.44308252e-01
  1.00000000e+00  1.00000000e+00  1.00000000e+00  1.00000000e+00  1.00000000e+00
  1.83470016e-03  1.40373012e-02  6.88426061e-02  2.32184421e-01  4.67941342e-01
  3.62312032e-01 -1.19332409e-01 -1.60854212e-01  1.14345648e+00  6.89990956e-02
  3.16423980e-01  7.44308252e-01  1.00000000e+00  1.00000000e+00  1.00000000e+00
  1.00000000e+00  1.00000000e+00  3.34945995e-02  2.34726947e-01  8.13757318e-01
  1.00000000e+00  3.34945995e-02  2.34726947e-01  8.13757318e-01  1.00000000e+00
  3.34945995e-02  2.34726947e-01  8.13757318e-01  1.00000000e+00  3.34945995e-02
  2.34726947e-01  8.13757318e-01  1.00000000e+00  3.34945995e-02  2.34726947e-01
  8.13757318e-01  1.00000000e+00  3.34945995e-02  2.34726947e-01  8.13757318e-01
  1.00000000e+00  3.34945995e-02  2.34726947e-01  8.13757318e-01  1.00000000e+00
  3.34945995e-02  2.34726947e-01  8.13757318e-01  1.00000000e+00  1.83470016e-03
  1.40373012e-02  6.88426061e-02  2.32184421e-01  4.67941342e-01  3.62312032e-01
 -1.19332409e-01 -1.60854212e-01  1.14345648e+00  6.89990956e-02  3.16423980e-01
  7.44308252e-01  1.00000000e+00  1.00000000e+00  1.00000000e+00  1.00000000e+00
  1.00000000e+00  1.83470016e-03  1.40373012e-02  6.88426061e-02  2.32184421e-01
  4.67941342e-01  3.62312032e-01 -1.19332409e-01 -1.60854212e-01  1.14345648e+00
  6.89990956e-02  3.16423980e-01  7.44308252e-01  1.00000000e+00  1.00000000e+00
  1.00000000e+00  1.00000000e+00  1.00000000e+00  1.83470016e-03  1.40373012e-02
  6.88426061e-02  2.32184421e-01  4.67941342e-01  3.62312032e-01 -1.19332409e-01
 -1.60854212e-01  1.14345648e+00  6.89990956e-02  3.16423980e-01  7.44308252e-01
  1.00000000e+00  1.00000000e+00  1.00000000e+00  1.00000000e+00  1.00000000e+00
  1.83470016e-03  1.40373012e-02  6.88426061e-02  2.32184421e-01  4.67941342e-01
  3.62312032e-01 -1.19332409e-01 -1.60854212e-01  1.14345648e+00  6.89990956e-02
  3.16423980e-01  7.44308252e-01  1.00000000e+00  1.00000000e+00  1.00000000e+00
  1.00000000e+00  1.00000000e+00  1.83470016e-03  1.40373012e-02  6.88426061e-02
  2.32184421e-01  4.67941342e-01  3.62312032e-01 -1.19332409e-01 -1.60854212e-01
  1.14345648e+00  6.89990956e-02  3.16423980e-01  7.44308252e-01  1.00000000e+00
  1.00000000e+00  1.00000000e+00  1.00000000e+00  1.00000000e+00  1.83470016e-03
  1.40373012e-02  6.88426061e-02  2.32184421e-01  4.67941342e-01  3.62312032e-01
 -1.19332409e-01 -1.60854212e-01  1.14345648e+00  6.89990956e-02  3.16423980e-01
  7.44308252e-01  1.00000000e+00  1.00000000e+00  1.00000000e+00  1.00000000e+00
  1.00000000e+00  1.83470016e-03  1.40373012e-02  6.88426061e-02  2.32184421e-01
  4.67941342e-01  3.62312032e-01 -1.19332409e-01 -1.60854212e-01  1.14345648e+00
  6.89990956e-02  3.16423980e-01  7.44308252e-01  1.00000000e+00  1.00000000e+00
  1.00000000e+00  1.00000000e+00  1.00000000e+00  3.34945995e-02  2.34726947e-01
  8.13757318e-01  1.00000000e+00  3.34945995e-02  2.34726947e-01  8.13757318e-01
  1.00000000e+00  3.34945995e-02  2.34726947e-01  8.13757318e-01  1.00000000e+00
  3.34945995e-02  2.34726947e-01  8.13757318e-01  1.00000000e+00  1.83109981e-03
  1.39500985e-02  6.84450927e-02  2.32714275e-01  4.70192950e-01  3.58520862e-01
 -1.10777504e-01 -1.48026305e-01  1.13076704e+00  7.08742995e-02  3.39752798e-01
  7.27158595e-01  1.00000000e+00  1.00000000e+00  1.00000000e+00  1.00000000e+00
  1.00000000e+00  3.34945995e-02  2.34726947e-01  8.13757318e-01  1.00000000e+00
  1.83109981e-03  1.39500985e-02  6.84450927e-02  2.32714275e-01  4.70192950e-01
  3.58520862e-01 -1.10777504e-01 -1.48026305e-01  1.13076704e+00  7.08742995e-02
  3.39752798e-01  7.27158595e-01  1.00000000e+00  1.00000000e+00  1.00000000e+00
  1.00000000e+00  1.00000000e+00  1.83470016e-03  1.40373012e-02  6.88426061e-02
  2.32184421e-01  4.67941342e-01  3.62312032e-01 -1.19332409e-01 -1.60854212e-01
  1.14345648e+00  6.89990956e-02  3.16423980e-01  7.44308252e-01  1.00000000e+00
  1.00000000e+00  1.00000000e+00  1.00000000e+00  1.00000000e+00  3.34945995e-02
  2.34726947e-01  8.13757318e-01  1.00000000e+00  3.34945995e-02  2.34726947e-01
  8.13757318e-01  1.00000000e+00  3.34945995e-02  2.34726947e-01  8.13757318e-01
  1.00000000e+00  3.34945995e-02  2.34726947e-01  8.13757318e-01  1.00000000e+00
Coordinates of each shell                  R   N=         486
 -2.99633007e+00 -4.52692496e+00  2.44588993e+00 -2.99633007e+00 -4.52692496e+00
  2.44588993e+00 -2.99633007e+00 -4.52692496e+00  2.44588993e+00 -2.99633007e+00
 -4.52692496e+00  2.44588993e+00 -2.99633007e+00 -4.52692496e+00  2.44588993e+00
 -2.99633007e+00 -4.52692496e+00  2.44588993e+00 -2.99633007e+00 -4.52692496e+00
  2.44588993e+00 -2.99633007e+00 -4.52692496e+00  2.44588993e+00 -4.96729728e-01
 -3.56283528e+00  3.16079680e+00 -4.96729728e-01 -3.56283528e+00  3.16079680e+00
 -4.96729728e-01 -3.56283528e+00  3.16079680e+00 -4.96729728e-01 -3.56283528e+00
  3.16079680e+00 -4.96729728e-01 -3.56283528e+00  3.16079680e+00 -4.96729728e-01
 -3.56283528e+00  3.16079680e+00 -4.96729728e-01 -3.56283528e+00  3.16079680e+00
 -4.96729728e-01 -3.56283528e+00  3.16079680e+00  1.05795022e+00 -2.89224165e+00
  8.20355864e-01  1.05795022e+00 -2.89224165e+00  8.20355864e-01  1.05795022e+00
 -2.89224165e+00  8.20355864e-01  1.05795022e+00 -2.89224165e+00  8.20355864e-01
  1.05795022e+00 -2.89224165e+00  8.20355864e-01  1.05795022e+00 -2.89224165e+00
  8.20355864e-01  1.05795022e+00 -2.89224165e+00  8.20355864e-01  1.05795022e+00
 -2.89224165e+00  8.20355864e-01 -8.71063169e-02 -6.04233294e-01 -6.56647846e-01
 -8.71063169e-02 -6.04233294e-01 -6.56647846e-01 -8.71063169e-02 -6.04233294e-01
 -6.56647846e-01 -8.71063169e-02 -6.04233294e-01 -6.56647846e-01 -8.71063169e-02
 -6.04233294e-01 -6.56647846e-01 -8.71063169e-02 -6.04233294e-01 -6.56647846e-01
 -8.71063169e-02 -6.04233294e-01 -6.56647846e-01 -8.71063169e-02 -6.04233294e-01
 -6.56647846e-01 -4.02371108e+00 -3.27536692e+00  1.73262077e-01 -4.02371108e+00
 -3.27536692e+00  1.73262077e-01 -4.02371108e+00 -3.27536692e+00  1.73262077e-01
 -4.02371108e+00 -3.27536692e+00  1.73262077e-01 -4.02371108e+00 -3.27536692e+00
  1.73262077e-01 -4.02371108e+00 -3.27536692e+00  1.73262077e-01 -4.02371108e+00
 -3.27536692e+00  1.73262077e-01 -4.02371108e+00 -3.27536692e+00  1.73262077e-01
 -3.00535435e+00 -5.77123562e-01 -1.49570791e-01 -3.00535435e+00 -5.77123562e-01
 -1.49570791e-01 -3.00535435e+00 -5.77123562e-01 -1.49570791e-01 -3.00535435e+00
 -5.77123562e-01 -1.49570791e-01 -3.00535435e+00 -5.77123562e-01 -1.49570791e-01
 -3.00535435e+00 -5.77123562e-01 -1.49570791e-01 -3.00535435e+00 -5.77123562e-01
 -1.49570791e-01 -3.00535435e+00 -5.77123562e-01 -1.49570791e-01 -4.02012526e+00
  4.09687363e-01 -1.66432469e+00 -4.02012526e+00  4.09687363e-01 -1.66432469e+00
 -3.37741965e+00  4.63718504e-01  1.60044138e+00 -3.37741965e+00  4.63718504e-01
  1.60044138e+00  4.86266197e-01 -5.02343935e+00  4.25717780e+00  4.86266197e-01
 -5.02343935e+00  4.25717780e+00 -6.45129799e-01 -1.88481955e+00  4.41146900e+00
 -6.45129799e-01 -1.88481955e+00  4.41146900e+00 -6.08748550e+00 -3.22154283e+00
  3.24770717e-01 -6.08748550e+00 -3.22154283e+00  3.24770717e-01 -3.57539487e+00
 -4.40518307e+00 -1.50622754e+00 -3.57539487e+00 -4.40518307e+00 -1.50622754e+00
  1.11607778e+00 -4.52892449e+00 -4.40225338e-01  1.11607778e+00 -4.52892449e+00
 -4.40225338e-01  3.00230436e+00 -2.48874997e+00  1.39014491e+00  3.00230436e+00
 -2.48874997e+00  1.39014491e+00  2.09389301e-01 -1.06815378e+00 -3.54554798e+00
  2.09389301e-01 -1.06815378e+00 -3.54554798e+00  2.09389301e-01 -1.06815378e+00
 -3.54554798e+00  2.09389301e-01 -1.06815378e+00 -3.54554798e+00  2.09389301e-01
 -1.06815378e+00 -3.54554798e+00  2.09389301e-01 -1.06815378e+00 -3.54554798e+00
  2.09389301e-01 -1.06815378e+00 -3.54554798e+00  2.09389301e-01 -1.06815378e+00
 -3.54554798e+00  3.86905346e+00  2.08686328e+00 -1.64971616e-01  3.86905346e+00
  2.08686328e+00 -1.64971616e-01  3.86905346e+00  2.08686328e+00 -1.64971616e-01
  3.86905346e+00  2.08686328e+00 -1.64971616e-01  3.86905346e+00  2.08686328e+00
 -1.64971616e-01  3.86905346e+00  2.08686328e+00 -1.64971616e-01  3.86905346e+00
  2.08686328e+00 -1.64971616e-01  3.86905346e+00  2.08686328e+00 -1.64971616e-01
  1.21967427e+00  1.90621812e+00  3.61309515e-02  1.21967427e+00  1.90621812e+00
  3.61309515e-02  1.21967427e+00  1.90621812e+00  3.61309515e-02  1.21967427e+00
  1.90621812e+00  3.61309515e-02  1.21967427e+00  1.90621812e+00  3.61309515e-02
  1.21967427e+00  1.90621812e+00  3.61309515e-02  1.21967427e+00  1.90621812e+00
  3.61309515e-02  1.21967427e+00  1.90621812e+00  3.61309515e-02 -1.03344167e-01
  4.08687788e+00  7.68362491e-01 -1.03344167e-01  4.08687788e+00  7.68362491e-01
 -1.03344167e-01  4.08687788e+00  7.68362491e-01 -1.03344167e-01  4.08687788e+00
  7.68362491e-01 -1.03344167e-01  4.08687788e+00  7.68362491e-01 -1.03344167e-01
  4.08687788e+00  7.68362491e-01 -1.03344167e-01  4.08687788e+00  7.68362491e-01
 -1.03344167e-01  4.08687788e+00  7.68362491e-01  1.16840855e+00  6.34134581e+00
  1.32633359e+00  1.16840855e+00  6.34134581e+00  1.32633359e+00  1.16840855e+00
  6.34134581e+00  1.32633359e+00  1.16840855e+00  6.34134581e+00  1.32633359e+00
  1.16840855e+00  6.34134581e+00  1.32633359e+00  1.16840855e+00  6.34134581e+00
  1.32633359e+00  1.16840855e+00  6.34134581e+00  1.32633359e+00  1.16840855e+00
  6.34134581e+00  1.32633359e+00  3.79282347e+00  6.47030557e+00  1.14707738e+00
  3.79282347e+00  6.47030557e+00  1.14707738e+00  3.79282347e+00  6.47030557e+00
  1.14707738e+00  3.79282347e+00  6.47030557e+00  1.14707738e+00  3.79282347e+00
  6.47030557e+00  1.14707738e+00  3.79282347e+00  6.47030557e+00  1.14707738e+00
  3.79282347e+00  6.47030557e+00  1.14707738e+00  3.79282347e+00  6.47030557e+00
  1.14707738e+00  5.14062145e+00  4.32672824e+00  3.85366624e-01  5.14062145e+00
  4.32672824e+00  3.85366624e-01  5.14062145e+00  4.32672824e+00  3.85366624e-01
  5.14062145e+00  4.32672824e+00  3.85366624e-01  5.14062145e+00  4.32672824e+00
  3.85366624e-01  5.14062145e+00  4.32672824e+00  3.85366624e-01  5.14062145e+00
  4.32672824e+00  3.85366624e-01  5.14062145e+00  4.32672824e+00  3.85366624e-01
  7.18602110e+00  4.40107536e+00  2.11933136e-01  7.18602110e+00  4.40107536e+00
  2.11933136e-01 -2.14775545e+00  4.06186273e+00  9.18837663e-01 -2.14775545e+00
  4.06186273e+00  9.18837663e-01  8.87907401e-02  7.99148141e+00  1.90208717e+00
  8.87907401e-02  7.99148141e+00  1.90208717e+00  4.78065178e+00  8.21729326e+00
  1.58236151e+00  4.78065178e+00  8.21729326e+00  1.58236151e+00  4.43071005e-01
 -3.12826144e+00 -4.50268410e+00  4.43071005e-01 -3.12826144e+00 -4.50268410e+00
  4.43071005e-01 -3.12826144e+00 -4.50268410e+00  4.43071005e-01 -3.12826144e+00
 -4.50268410e+00  4.43071005e-01 -3.12826144e+00 -4.50268410e+00  4.43071005e-01
 -3.12826144e+00 -4.50268410e+00  4.43071005e-01 -3.12826144e+00 -4.50268410e+00
  4.43071005e-01 -3.12826144e+00 -4.50268410e+00  4.95533350e+00  4.55047271e-01
 -7.80769985e-01  4.95533350e+00  4.55047271e-01 -7.80769985e-01  2.80110624e-02
  1.00359493e+00 -5.04989457e+00  2.80110624e-02  1.00359493e+00 -5.04989457e+00
  2.80110624e-02  1.00359493e+00 -5.04989457e+00  2.80110624e-02  1.00359493e+00
 -5.04989457e+00  2.80110624e-02  1.00359493e+00 -5.04989457e+00  2.80110624e-02
  1.00359493e+00 -5.04989457e+00  2.80110624e-02  1.00359493e+00 -5.04989457e+00
  2.80110624e-02  1.00359493e+00 -5.04989457e+00 -4.71932338e+00 -4.55410884e+00
  4.58676578e+00 -4.71932338e+00 -4.55410884e+00  4.58676578e+00 -4.71932338e+00
 -4.55410884e+00  4.58676578e+00 -4.71932338e+00 -4.55410884e+00  4.58676578e+00
 -4.71932338e+00 -4.55410884e+00  4.58676578e+00 -4.71932338e+00 -4.55410884e+00
  4.58676578e+00 -4.71932338e+00 -4.55410884e+00  4.58676578e+00 -4.71932338e+00
 -4.55410884e+00  4.58676578e+00 -6.49641313e+00 -5.47309264e+00  4.05705085e+00
 -6.49641313e+00 -5.47309264e+00  4.05705085e+00 -5.15987777e+00 -2.64370084e+00
  5.33474438e+00 -5.15987777e+00 -2.64370084e+00  5.33474438e+00 -3.87646824e+00
 -5.64927743e+00  6.13066087e+00 -3.87646824e+00 -5.64927743e+00  6.13066087e+00
  3.28168257e-02  2.53506312e+00 -4.02547892e+00  3.28168257e-02  2.53506312e+00
 -4.02547892e+00
Total Energy                               R     -7.108330314889955e+02