Generated by Psi4
     FORCE                           RHF                       TESTBAS
Number of atoms                            I               39
Charge                                     I                0
Multiplicity                               I                1
Number of electrons                        I              134
Number of alpha electrons                  I               67
Number of beta electrons                   I               67
Number of basis functions                  I              384
Number of independent functions            I              384
Atomic numbers                             I   N=          39
           7           6           6           6           6           6
           1           1           1           1           1           1
           1           1           6           6           6           6
           6           6           6           1           1           1
           1           8           6           1           8           6
           6           1           1           1           1           1
           1           1           1
Nuclear charges                            R   N=          39
  7.00000000e+00  6.00000000e+00  6.00000000e+00  6.00000000e+00  6.00000000e+00
  6.00000000e+00  1.00000000e+00  1.00000000e+00  1.00000000e+00  1.00000000e+00
  1.00000000e+00  1.00000000e+00  1.00000000e+00  1.00000000e+00  6.00000000e+00
  6.00000000e+00  6.00000000e+00  6.00000000e+00  6.00000000e+00  6.00000000e+00
  6.00000000e+00  1.00000000e+00  1.00000000e+00  1.00000000e+00  1.00000000e+00
  8.00000000e+00  6.00000000e+00  1.00000000e+00  8.00000000e+00  6.00000000e+00
  6.00000000e+00  1.00000000e+00  1.00000000e+00  1.00000000e+00  1.00000000e+00
  1.00000000e+00  1.00000000e+00  1.00000000e+00  1.00000000e+00
Current cartesian coordinates              R   N=         117
 -3.36151849e+00 -3.88032928e+00  1.94777281e+00 -1.63538147e+00 -3.53099815e+00
  4.07316467e+00  4.53282442e-01 -1.59227558e+00  3.39850299e+00 -2.79454416e-01
  4.95797427e-02  1.07331009e+00 -4.81904005e+00 -1.58661084e+00  1.45768199e+00
 -3.09086962e+00  7.68460002e-01  1.37679067e+00 -3.71249239e+00  2.02482082e+00
 -1.39632597e-01 -3.26832374e+00  1.82168939e+00  3.15298768e+00 -7.80817639e-01
 -5.36217782e+00  4.51802458e+00 -2.68014053e+00 -2.92202990e+00  5.78768409e+00
 -6.30026966e+00 -1.30936789e+00  2.91711670e+00 -5.78757000e+00 -1.83243679e+00
 -3.55707780e-01  2.22767571e+00 -2.56709719e+00  2.99620213e+00  7.87968831e-01
 -3.27180037e-01  5.00280829e+00  1.80123749e-01 -1.49437126e+00 -1.35694688e+00
  4.10538683e+00  2.00688543e+00  6.42329779e-01  1.48609268e+00  2.36778397e+00
  9.20517792e-01  5.89522889e-01  4.85622576e+00  1.09260345e+00  2.24879612e+00
  6.91345323e+00  1.00816720e+00  4.84270556e+00  6.52597397e+00  7.40768778e-01
  5.76248417e+00  4.05637998e+00  5.54878762e-01  7.77767073e+00  3.71945305e+00
  3.36025767e-01 -1.41556901e+00  5.22736254e+00  1.29698797e+00  1.49834682e+00
  8.82132333e+00  1.14871628e+00  6.13169697e+00  8.12410326e+00  6.73735688e-01
  1.85962578e+00 -3.03909690e+00 -1.62088972e+00 -4.97253304e+00 -6.08778434e+00
  2.21332870e+00  4.85123400e+00  1.03403470e-01  4.67687446e-01 -1.40043326e+00
 -8.02278833e-01 -3.23989308e+00 -1.06148489e+00 -2.02208416e+00 -5.67072649e+00
  8.67620577e-01 -6.29068301e-01 -7.28549370e+00 -2.94087090e+00 -1.96596616e+00
 -6.52705101e+00 -5.07172959e-01 -3.98559210e+00 -5.35194901e+00  3.24496612e-01
  1.35221324e+00 -7.54112063e+00  9.80379401e-01 -1.51893410e+00 -9.15476935e+00
  2.74408912e+00 -6.99845694e-01 -6.42057137e+00 -6.14892103e+00 -6.29750638e+00
  5.21632793e-01 -6.24557969e+00 -5.96847128e+00  3.87440450e+00 -3.80866657e+00
 -7.78852226e+00  2.40630875e+00
Integer atomic weights                     I   N=          39
          14          12          12          12          12          12
           1           1           1           1           1           1
           1           1          12          12          12          12
          12          12          12           1           1           1
           1          15          12           1          15          12
          12           1           1           1           1           1
           1           1           1
Real atomic weights                        R   N=          39
  1.40030740e+01  1.20000000e+01  1.20000000e+01  1.20000000e+01  1.20000000e+01
  1.20000000e+01  1.00782503e+00  1.00782503e+00  1.00782503e+00  1.00782503e+00
  1.00782503e+00  1.00782503e+00  1.00782503e+00  1.00782503e+00  1.20000000e+01
  1.20000000e+01  1.20000000e+01  1.20000000e+01  1.20000000e+01  1.20000000e+01
  1.20000000e+01  1.00782503e+00  1.00782503e+00  1.00782503e+00  1.00782503e+00
  1.59949146e+01  1.20000000e+01  1.00782503e+00  1.59949146e+01  1.20000000e+01
  1.20000000e+01  1.00782503e+00  1.00782503e+00  1.00782503e+00  1.00782503e+00
  1.00782503e+00  1.00782503e+00  1.00782503e+00  1.00782503e+00
Number of primitive shells                 I              390
Number of contracted shells                I              186
Pure/Cartesian d shells                    I                1
Pure/Cartesian f shells                    I                1
Highest angular momentum                   I                2
Largest degree of contraction              I                6
Shell types                                I   N=         186
           0           0           1           0           1           2
           0           1           0           0           1           0
           1           2           0           1           0           0
           1           0           1           2           0           1
           0           0           1           0           1           2
           0           1           0           0           1           0
           1           2           0           1           0           0
           1           0           1           2           0           1
           0           0           0           0           0           0
           0           0           0           0           0           0
           0           0           0           0           0           0
           1           0           1           2           0           1
           0           0           1           0           1           2
           0           1           0           0           1           0
           1           2           0           1           0           0
           1           0           1           2           0           1
           0           0           1           0           1           2
           0           1           0           0           1           0
           1           2           0           1           0           0
           1           0           1           2           0           1
           0           0           0           0           0           0
           0           0           0           0           1           0
           1           2           0           1           0           0
           1           0           1           2           0           1
           0           0           0           0           1           0
           1           2           0           1           0           0
           1           0           1           2           0           1
           0           0           1           0           1           2
           0           1           0           0           0           0
           0           0           0           0           0           0
           0           0           0           0           0           0
Number of primitives per shell             I   N=         186
           6           3           3           1           1           1
           1           1           6           3           3           1
           1           1           1           1           6           3
           3           1           1           1           1           1
           6           3           3           1           1           1
           1           1           6           3           3           1
           1           1           1           1           6           3
           3           1           1           1           1           1
           3           1           3           1           3           1
           3           1           3           1           3           1
           3           1           3           1           6           3
           3           1           1           1           1           1
           6           3           3           1           1           1
           1           1           6           3           3           1
           1           1           1           1           6           3
           3           1           1           1           1           1
           6           3           3           1           1           1
           1           1           6           3           3           1
           1           1           1           1           6           3
           3           1           1           1           1           1
           3           1           3           1           3           1
           3           1           6           3           3           1
           1           1           1           1           6           3
           3           1           1           1           1           1
           3           1           6           3           3           1
           1           1           1           1           6           3
           3           1           1           1           1           1
           6           3           3           1           1           1
           1           1           3           1           3           1
           3           1           3           1           3           1
           3           1           3           1           3           1
Shell to atom map                          I   N=         186
           1           1           1           1           1           1
           1           1           2           2           2           2
           2           2           2           2           3           3
           3           3           3           3           3           3
           4           4           4           4           4           4
           4           4           5           5           5           5
           5           5           5           5           6           6
           6           6           6           6           6           6
           7           7           8           8           9           9
          10          10          11          11          12          12
          13          13          14          14          15          15
          15          15          15          15          15          15
          16          16          16          16          16          16
          16          16          17          17          17          17
          17          17          17          17          18          18
          18          18          18          18          18          18
          19          19          19          19          19          19
          19          19          20          20          20          20
          20          20          20          20          21          21
          21          21          21          21          21          21
          22          22          23          23          24          24
          25          25          26          26          26          26
          26          26          26          26          27          27
          27          27          27          27          27          27
          28          28          29          29          29          29
          29          29          29          29          30          30
          30          30          30          30          30          30
          31          31          31          31          31          31
          31          31          32          32          33          33
          34          34          35          35          36          36
          37          37          38          38          39          39
Primitive exponents                        R   N=         390
  4.17351100e+03  6.27457900e+02  1.42902100e+02  4.02343300e+01  1.28202100e+01
  4.39043700e+00  1.16263580e+01  2.71628000e+00  7.72218000e-01  1.16263580e+01
  2.71628000e+00  7.72218000e-01  2.12031300e-01  2.12031300e-01  8.00000000e-01
  6.39000000e-02  6.39000000e-02  3.04752490e+03  4.57369510e+02  1.03948690e+02
  2.92101550e+01  9.28666300e+00  3.16392700e+00  7.86827240e+00  1.88128850e+00
  5.44249300e-01  7.86827240e+00  1.88128850e+00  5.44249300e-01  1.68714400e-01
  1.68714400e-01  8.00000000e-01  4.38000000e-02  4.38000000e-02  3.04752490e+03
  4.57369510e+02  1.03948690e+02  2.92101550e+01  9.28666300e+00  3.16392700e+00
  7.86827240e+00  1.88128850e+00  5.44249300e-01  7.86827240e+00  1.88128850e+00
  5.44249300e-01  1.68714400e-01  1.68714400e-01  8.00000000e-01  4.38000000e-02
  4.38000000e-02  3.04752490e+03  4.57369510e+02  1.03948690e+02  2.92101550e+01
  9.28666300e+00  3.16392700e+00  7.86827240e+00  1.88128850e+00  5.44249300e-01
  7.86827240e+00  1.88128850e+00  5.44249300e-01  1.68714400e-01  1.68714400e-01
  8.00000000e-01  4.38000000e-02  4.38000000e-02  3.04752490e+03  4.57369510e+02
  1.03948690e+02  2.92101550e+01  9.28666300e+00  3.16392700e+00  7.86827240e+00
  1.88128850e+00  5.44249300e-01  7.86827240e+00  1.88128850e+00  5.44249300e-01
  1.68714400e-01  1.68714400e-01  8.00000000e-01  4.38000000e-02  4.38000000e-02
  3.04752490e+03  4.57369510e+02  1.03948690e+02  2.92101550e+01  9.28666300e+00
  3.16392700e+00  7.86827240e+00  1.88128850e+00  5.44249300e-01  7.86827240e+00
  1.88128850e+00  5.44249300e-01  1.68714400e-01  1.68714400e-01  8.00000000e-01
  4.38000000e-02  4.38000000e-02  1.87311370e+01  2.82539370e+00  6.40121700e-01
  1.61277800e-01  1.87311370e+01  2.82539370e+00  6.40121700e-01  1.61277800e-01
  1.87311370e+01  2.82539370e+00  6.40121700e-01  1.61277800e-01  1.87311370e+01
  2.82539370e+00  6.40121700e-01  1.61277800e-01  1.87311370e+01  2.82539370e+00
  6.40121700e-01  1.61277800e-01  1.87311370e+01  2.82539370e+00  6.40121700e-01
  1.61277800e-01  1.87311370e+01  2.82539370e+00  6.40121700e-01  1.61277800e-01
  1.87311370e+01  2.82539370e+00  6.40121700e-01  1.61277800e-01  3.04752490e+03
  4.57369510e+02  1.03948690e+02  2.92101550e+01  9.28666300e+00  3.16392700e+00
  7.86827240e+00  1.88128850e+00  5.44249300e-01  7.86827240e+00  1.88128850e+00
  5.44249300e-01  1.68714400e-01  1.68714400e-01  8.00000000e-01  4.38000000e-02
  4.38000000e-02  3.04752490e+03  4.57369510e+02  1.03948690e+02  2.92101550e+01
  9.28666300e+00  3.16392700e+00  7.86827240e+00  1.88128850e+00  5.44249300e-01
  7.86827240e+00  1.88128850e+00  5.44249300e-01  1.68714400e-01  1.68714400e-01
  8.00000000e-01  4.38000000e-02  4.38000000e-02  3.04752490e+03  4.57369510e+02
  1.03948690e+02  2.92101550e+01  9.28666300e+00  3.16392700e+00  7.86827240e+00
  1.88128850e+00  5.44249300e-01  7.86827240e+00  1.88128850e+00  5.44249300e-01
  1.68714400e-01  1.68714400e-01  8.00000000e-01  4.38000000e-02  4.38000000e-02
  3.04752490e+03  4.57369510e+02  1.03948690e+02  2.92101550e+01  9.28666300e+00
  3.16392700e+00  7.86827240e+00  1.88128850e+00  5.44249300e-01  7.86827240e+00
  1.88128850e+00  5.44249300e-01  1.68714400e-01  1.68714400e-01  8.00000000e-01
  4.38000000e-02  4.38000000e-02  3.04752490e+03  4.57369510e+02  1.03948690e+02
  2.92101550e+01  9.28666300e+00  3.16392700e+00  7.86827240e+00  1.88128850e+00
  5.44249300e-01  7.86827240e+00  1.88128850e+00  5.44249300e-01  1.68714400e-01
  1.68714400e-01  8.00000000e-01  4.38000000e-02  4.38000000e-02  3.04752490e+03
  4.57369510e+02  1.03948690e+02  2.92101550e+01  9.28666300e+00  3.16392700e+00
  7.86827240e+00  1.88128850e+00  5.44249300e-01  7.86827240e+00  1.88128850e+00
  5.44249300e-01  1.68714400e-01  1.68714400e-01  8.00000000e-01  4.38000000e-02
  4.38000000e-02  3.04752490e+03  4.57369510e+02  1.03948690e+02  2.92101550e+01
  9.28666300e+00  3.16392700e+00  7.86827240e+00  1.88128850e+00  5.44249300e-01
  7.86827240e+00  1.88128850e+00  5.44249300e-01  1.68714400e-01  1.68714400e-01
  8.00000000e-01  4.38000000e-02  4.38000000e-02  1.87311370e+01  2.82539370e+00
  6.40121700e-01  1.61277800e-01  1.87311370e+01  2.82539370e+00  6.40121700e-01
  1.61277800e-01  1.87311370e+01  2.82539370e+00  6.40121700e-01  1.61277800e-01
  1.87311370e+01  2.82539370e+00  6.40121700e-01  1.61277800e-01  5.48467170e+03
  8.25234950e+02  1.88046960e+02  5.29645000e+01  1.68975700e+01  5.79963530e+00
  1.55396160e+01  3.59993360e+00  1.01376180e+00  1.55396160e+01  3.59993360e+00
  1.01376180e+00  2.70005800e-01  2.70005800e-01  8.00000000e-01  8.45000000e-02
  8.45000000e-02  3.04752490e+03  4.57369510e+02  1.03948690e+02  2.92101550e+01
  9.28666300e+00  3.16392700e+00  7.86827240e+00  1.88128850e+00  5.44249300e-01
  7.86827240e+00  1.88128850e+00  5.44249300e-01  1.68714400e-01  1.68714400e-01
  8.00000000e-01  4.38000000e-02  4.38000000e-02  1.87311370e+01  2.82539370e+00
  6.40121700e-01  1.61277800e-01  5.48467170e+03  8.25234950e+02  1.88046960e+02
  5.29645000e+01  1.68975700e+01  5.79963530e+00  1.55396160e+01  3.59993360e+00
  1.01376180e+00  1.55396160e+01  3.59993360e+00  1.01376180e+00  2.70005800e-01
  2.70005800e-01  8.00000000e-01  8.45000000e-02  8.45000000e-02  3.04752490e+03
  4.57369510e+02  1.03948690e+02  2.92101550e+01  9.28666300e+00  3.16392700e+00
  7.86827240e+00  1.88128850e+00  5.44249300e-01  7.86827240e+00  1.88128850e+00
  5.44249300e-01  1.68714400e-01  1.68714400e-01  8.00000000e-01  4.38000000e-02
  4.38000000e-02  3.04752490e+03  4.57369510e+02  1.03948690e+02  2.92101550e+01
  9.28666300e+00  3.16392700e+00  7.86827240e+00  1.88128850e+00  5.44249300e-01
  7.86827240e+00  1.88128850e+00  5.44249300e-01  1.68714400e-01  1.68714400e-01
  8.00000000e-01  4.38000000e-02  4.38000000e-02  1.87311370e+01  2.82539370e+00
  6.40121700e-01  1.61277800e-01  1.87311370e+01  2.82539370e+00  6.40121700e-01
  1.61277800e-01  1.87311370e+01  2.82539370e+00  6.40121700e-01  1.61277800e-01
  1.87311370e+01  2.82539370e+00  6.40121700e-01  1.61277800e-01  1.87311370e+01
  2.82539370e+00  6.40121700e-01  1.61277800e-01  1.87311370e+01  2.82539370e+00
  6.40121700e-01  1.61277800e-01  1.87311370e+01  2.82539370e+00  6.40121700e-01
  1.61277800e-01  1.87311370e+01  2.82539370e+00  6.40121700e-01  1.61277800e-01
Contraction coefficients                   R   N=         390
  1.83479944e-03  1.39949958e-02  6.85869792e-02  2.32240930e-01  4.69069858e-01
  3.60454891e-01 -1.14961023e-01 -1.69118034e-01  1.14585223e+00  6.75800232e-02
  3.23907111e-01  7.40895255e-01  1.00000000e+00  1.00000000e+00  1.00000000e+00
  1.00000000e+00  1.00000000e+00  1.83470016e-03  1.40373012e-02  6.88426061e-02
  2.32184421e-01  4.67941342e-01  3.62312032e-01 -1.19332409e-01 -1.60854212e-01
  1.14345648e+00  6.89990956e-02  3.16423980e-01  7.44308252e-01  1.00000000e+00
  1.00000000e+00  1.00000000e+00  1.00000000e+00  1.00000000e+00  1.83470016e-03
  1.40373012e-02  6.88426061e-02  2.32184421e-01  4.67941342e-01  3.62312032e-01
 -1.19332409e-01 -1.60854212e-01  1.14345648e+00  6.89990956e-02  3.16423980e-01
  7.44308252e-01  1.00000000e+00  1.00000000e+00  1.00000000e+00  1.00000000e+00
  1.00000000e+00  1.83470016e-03  1.40373012e-02  6.88426061e-02  2.32184421e-01
  4.67941342e-01  3.62312032e-01 -1.19332409e-01 -1.60854212e-01  1.14345648e+00
  6.89990956e-02  3.16423980e-01  7.44308252e-01  1.00000000e+00  1.00000000e+00
  1.00000000e+00  1.00000000e+00  1.00000000e+00  1.83470016e-03  1.40373012e-02
  6.88426061e-02  2.32184421e-01  4.67941342e-01  3.62312032e-01 -1.19332409e-01
 -1.60854212e-01  1.14345648e+00  6.89990956e-02  3.16423980e-01  7.44308252e-01
  1.00000000e+00  1.00000000e+00  1.00000000e+00  1.00000000e+00  1.00000000e+00
  1.83470016e-03  1.40373012e-02  6.88426061e-02  2.32184421e-01  4.67941342e-01
  3.62312032e-01 -1.19332409e-01 -1.60854212e-01  1.14345648e+00  6.89990956e-02
  3.16423980e-01  7.44308252e-01  1.00000000e+00  1.00000000e+00  1.00000000e+00
  1.00000000e+00  1.00000000e+00  3.34945995e-02  2.34726947e-01  8.13757318e-01
  1.00000000e+00  3.34945995e-02  2.34726947e-01  8.13757318e-01  1.00000000e+00
  3.34945995e-02  2.34726947e-01  8.13757318e-01  1.00000000e+00  3.34945995e-02
  2.34726947e-01  8.13757318e-01  1.00000000e+00  3.34945995e-02  2.34726947e-01
  8.13757318e-01  1.00000000e+00  3.34945995e-02  2.34726947e-01  8.13757318e-01
  1.00000000e+00  3.34945995e-02  2.34726947e-01  8.13757318e-01  1.00000000e+00
  3.34945995e-02  2.34726947e-01  8.13757318e-01  1.00000000e+00  1.83470016e-03
  1.40373012e-02  6.88426061e-02  2.32184421e-01  4.67941342e-01  3.62312032e-01
 -1.19332409e-01 -1.60854212e-01  1.14345648e+00  6.89990956e-02  3.16423980e-01
  7.44308252e-01  1.00000000e+00  1.00000000e+00  1.00000000e+00  1.00000000e+00
  1.00000000e+00  1.83470016e-03  1.40373012e-02  6.88426061e-02  2.32184421e-01
  4.67941342e-01  3.62312032e-01 -1.19332409e-01 -1.60854212e-01  1.14345648e+00
  6.89990956e-02  3.16423980e-01  7.44308252e-01  1.00000000e+00  1.00000000e+00
  1.00000000e+00  1.00000000e+00  1.00000000e+00  1.83470016e-03  1.40373012e-02
  6.88426061e-02  2.32184421e-01  4.67941342e-01  3.62312032e-01 -1.19332409e-01
 -1.60854212e-01  1.14345648e+00  6.89990956e-02  3.16423980e-01  7.44308252e-01
  1.00000000e+00  1.00000000e+00  1.00000000e+00  1.00000000e+00  1.00000000e+00
  1.83470016e-03  1.40373012e-02  6.88426061e-02  2.32184421e-01  4.67941342e-01
  3.62312032e-01 -1.19332409e-01 -1.60854212e-01  1.14345648e+00  6.89990956e-02
  3.16423980e-01  7.44308252e-01  1.00000000e+00  1.00000000e+00  1.00000000e+00
  1.00000000e+00  1.00000000e+00  1.83470016e-03  1.40373012e-02  6.88426061e-02
  2.32184421e-01  4.67941342e-01  3.62312032e-01 -1.19332409e-01 -1.60854212e-01
  1.14345648e+00  6.89990956e-02  3.16423980e-01  7.44308252e-01  1.00000000e+00
  1.00000000e+00  1.00000000e+00  1.00000000e+00  1.00000000e+00  1.83470016e-03
  1.40373012e-02  6.88426061e-02  2.32184421e-01  4.67941342e-01  3.62312032e-01
 -1.19332409e-01 -1.60854212e-01  1.14345648e+00  6.89990956e-02  3.16423980e-01
  7.44308252e-01  1.00000000e+00  1.00000000e+00  1.00000000e+00  1.00000000e+00
  1.00000000e+00  1.83470016e-03  1.40373012e-02  6.88426061e-02  2.32184421e-01
  4.67941342e-01  3.62312032e-01 -1.19332409e-01 -1.60854212e-01  1.14345648e+00
  6.89990956e-02  3.16423980e-01  7.44308252e-01  1.00000000e+00  1.00000000e+00
  1.00000000e+00  1.00000000e+00  1.00000000e+00  3.34945995e-02  2.34726947e-01
  8.13757318e-01  1.00000000e+00  3.34945995e-02  2.34726947e-01  8.13757318e-01
  1.00000000e+00  3.34945995e-02  2.34726947e-01  8.13757318e-01  1.00000000e+00
  3.34945995e-02  2.34726947e-01  8.13757318e-01  1.00000000e+00  1.83109981e-03
  1.39500985e-02  6.84450927e-02  2.32714275e-01  4.70192950e-01  3.58520862e-01
 -1.10777504e-01 -1.48026305e-01  1.13076704e+00  7.08742995e-02  3.39752798e-01
  7.27158595e-01  1.00000000e+00  1.00000000e+00  1.00000000e+00  1.00000000e+00
  1.00000000e+00  1.83470016e-03  1.40373012e-02  6.88426061e-02  2.32184421e-01
  4.67941342e-01  3.62312032e-01 -1.19332409e-01 -1.60854212e-01  1.14345648e+00
  6.89990956e-02  3.16423980e-01  7.44308252e-01  1.00000000e+00  1.00000000e+00
  1.00000000e+00  1.00000000e+00  1.00000000e+00  3.34945995e-02  2.34726947e-01
  8.13757318e-01  1.00000000e+00  1.83109981e-03  1.39500985e-02  6.84450927e-02
  2.32714275e-01  4.70192950e-01  3.58520862e-01 -1.10777504e-01 -1.48026305e-01
  1.13076704e+00  7.08742995e-02  3.39752798e-01  7.27158595e-01  1.00000000e+00
  1.00000000e+00  1.00000000e+00  1.00000000e+00  1.00000000e+00  1.83470016e-03
  1.40373012e-02  6.88426061e-02  2.32184421e-01  4.67941342e-01  3.62312032e-01
 -1.19332409e-01 -1.60854212e-01  1.14345648e+00  6.89990956e-02  3.16423980e-01
  7.44308252e-01  1.00000000e+00  1.00000000e+00  1.00000000e+00  1.00000000e+00
  1.00000000e+00  1.83470016e-03  1.40373012e-02  6.88426061e-02  2.32184421e-01
  4.67941342e-01  3.62312032e-01 -1.19332409e-01 -1.60854212e-01  1.14345648e+00
  6.89990956e-02  3.16423980e-01  7.44308252e-01  1.00000000e+00  1.00000000e+00
  1.00000000e+00  1.00000000e+00  1.00000000e+00  3.34945995e-02  2.34726947e-01
  8.13757318e-01  1.00000000e+00  3.34945995e-02  2.34726947e-01  8.13757318e-01
  1.00000000e+00  3.34945995e-02  2.34726947e-01  8.13757318e-01  1.00000000e+00
  3.34945995e-02  2.34726947e-01  8.13757318e-01  1.00000000e+00  3.34945995e-02
  2.34726947e-01  8.13757318e-01  1.00000000e+00  3.34945995e-02  2.34726947e-01
  8.13757318e-01  1.00000000e+00  3.34945995e-02  2.34726947e-01  8.13757318e-01
  1.00000000e+00  3.34945995e-02  2.34726947e-01  8.13757318e-01  1.00000000e+00
Coordinates of each shell                  R   N=         558
 -3.36151849e+00 -3.88032928e+00  1.94777281e+00 -3.36151849e+00 -3.88032928e+00
  1.94777281e+00 -3.36151849e+00 -3.88032928e+00  1.94777281e+00 -3.36151849e+00
 -3.88032928e+00  1.94777281e+00 -3.36151849e+00 -3.88032928e+00  1.94777281e+00
 -3.36151849e+00 -3.88032928e+00  1.94777281e+00 -3.36151849e+00 -3.88032928e+00
  1.94777281e+00 -3.36151849e+00 -3.88032928e+00  1.94777281e+00 -1.63538147e+00
 -3.53099815e+00  4.07316467e+00 -1.63538147e+00 -3.53099815e+00  4.07316467e+00
 -1.63538147e+00 -3.53099815e+00  4.07316467e+00 -1.63538147e+00 -3.53099815e+00
  4.07316467e+00 -1.63538147e+00 -3.53099815e+00  4.07316467e+00 -1.63538147e+00
 -3.53099815e+00  4.07316467e+00 -1.63538147e+00 -3.53099815e+00  4.07316467e+00
 -1.63538147e+00 -3.53099815e+00  4.07316467e+00  4.53282442e-01 -1.59227558e+00
  3.39850299e+00  4.53282442e-01 -1.59227558e+00  3.39850299e+00  4.53282442e-01
 -1.59227558e+00  3.39850299e+00  4.53282442e-01 -1.59227558e+00  3.39850299e+00
  4.53282442e-01 -1.59227558e+00  3.39850299e+00  4.53282442e-01 -1.59227558e+00
  3.39850299e+00  4.53282442e-01 -1.59227558e+00  3.39850299e+00  4.53282442e-01
 -1.59227558e+00  3.39850299e+00 -2.79454416e-01  4.95797427e-02  1.07331009e+00
 -2.79454416e-01  4.95797427e-02  1.07331009e+00 -2.79454416e-01  4.95797427e-02
  1.07331009e+00 -2.79454416e-01  4.95797427e-02  1.07331009e+00 -2.79454416e-01
  4.95797427e-02  1.07331009e+00 -2.79454416e-01  4.95797427e-02  1.07331009e+00
 -2.79454416e-01  4.95797427e-02  1.07331009e+00 -2.79454416e-01  4.95797427e-02
  1.07331009e+00 -4.81904005e+00 -1.58661084e+00  1.45768199e+00 -4.81904005e+00
 -1.58661084e+00  1.45768199e+00 -4.81904005e+00 -1.58661084e+00  1.45768199e+00
 -4.81904005e+00 -1.58661084e+00  1.45768199e+00 -4.81904005e+00 -1.58661084e+00
  1.45768199e+00 -4.81904005e+00 -1.58661084e+00  1.45768199e+00 -4.81904005e+00
 -1.58661084e+00  1.45768199e+00 -4.81904005e+00 -1.58661084e+00  1.45768199e+00
 -3.09086962e+00  7.68460002e-01  1.37679067e+00 -3.09086962e+00  7.68460002e-01
  1.37679067e+00 -3.09086962e+00  7.68460002e-01  1.37679067e+00 -3.09086962e+00
  7.68460002e-01  1.37679067e+00 -3.09086962e+00  7.68460002e-01  1.37679067e+00
 -3.09086962e+00  7.68460002e-01  1.37679067e+00 -3.09086962e+00  7.68460002e-01
  1.37679067e+00 -3.09086962e+00  7.68460002e-01  1.37679067e+00 -3.71249239e+00
  2.02482082e+00 -1.39632597e-01 -3.71249239e+00  2.02482082e+00 -1.39632597e-01
 -3.26832374e+00  1.82168939e+00  3.15298768e+00 -3.26832374e+00  1.82168939e+00
  3.15298768e+00 -7.80817639e-01 -5.36217782e+00  4.51802458e+00 -7.80817639e-01
 -5.36217782e+00  4.51802458e+00 -2.68014053e+00 -2.92202990e+00  5.78768409e+00
 -2.68014053e+00 -2.92202990e+00  5.78768409e+00 -6.30026966e+00 -1.30936789e+00
  2.91711670e+00 -6.30026966e+00 -1.30936789e+00  2.91711670e+00 -5.78757000e+00
 -1.83243679e+00 -3.55707780e-01 -5.78757000e+00 -1.83243679e+00 -3.55707780e-01
  2.22767571e+00 -2.56709719e+00  2.99620213e+00  2.22767571e+00 -2.56709719e+00
  2.99620213e+00  7.87968831e-01 -3.27180037e-01  5.00280829e+00  7.87968831e-01
 -3.27180037e-01  5.00280829e+00  1.80123749e-01 -1.49437126e+00 -1.35694688e+00
  1.80123749e-01 -1.49437126e+00 -1.35694688e+00  1.80123749e-01 -1.49437126e+00
 -1.35694688e+00  1.80123749e-01 -1.49437126e+00 -1.35694688e+00  1.80123749e-01
 -1.49437126e+00 -1.35694688e+00  1.80123749e-01 -1.49437126e+00 -1.35694688e+00
  1.80123749e-01 -1.49437126e+00 -1.35694688e+00  1.80123749e-01 -1.49437126e+00
 -1.35694688e+00  4.10538683e+00  2.00688543e+00  6.42329779e-01  4.10538683e+00
  2.00688543e+00  6.42329779e-01  4.10538683e+00  2.00688543e+00  6.42329779e-01
  4.10538683e+00  2.00688543e+00  6.42329779e-01  4.10538683e+00  2.00688543e+00
  6.42329779e-01  4.10538683e+00  2.00688543e+00  6.42329779e-01  4.10538683e+00
  2.00688543e+00  6.42329779e-01  4.10538683e+00  2.00688543e+00  6.42329779e-01
  1.48609268e+00  2.36778397e+00  9.20517792e-01  1.48609268e+00  2.36778397e+00
  9.20517792e-01  1.48609268e+00  2.36778397e+00  9.20517792e-01  1.48609268e+00
  2.36778397e+00  9.20517792e-01  1.48609268e+00  2.36778397e+00  9.20517792e-01
  1.48609268e+00  2.36778397e+00  9.20517792e-01  1.48609268e+00  2.36778397e+00
  9.20517792e-01  1.48609268e+00  2.36778397e+00  9.20517792e-01  5.89522889e-01
  4.85622576e+00  1.09260345e+00  5.89522889e-01  4.85622576e+00  1.09260345e+00
  5.89522889e-01  4.85622576e+00  1.09260345e+00  5.89522889e-01  4.85622576e+00
  1.09260345e+00  5.89522889e-01  4.85622576e+00  1.09260345e+00  5.89522889e-01
  4.85622576e+00  1.09260345e+00  5.89522889e-01  4.85622576e+00  1.09260345e+00
  5.89522889e-01  4.85622576e+00  1.09260345e+00  2.24879612e+00  6.91345323e+00
  1.00816720e+00  2.24879612e+00  6.91345323e+00  1.00816720e+00  2.24879612e+00