Generated by Psi4
     FORCE                           RHF                       TESTBAS
Number of atoms                            I               29
Charge                                     I                0
Multiplicity                               I                1
Number of electrons                        I               96
Number of alpha electrons                  I               48
Number of beta electrons                   I               48
Number of basis functions                  I              279
Number of independent functions            I              279
Atomic numbers                             I   N=          29
           7           6           6           7           6           6
           6           6           6           6           6           1
           1           1           1           1           1           1
           1           1           1           1           1           6
           1           1           6           1           1
Nuclear charges                            R   N=          29
  7.00000000e+00  6.00000000e+00  6.00000000e+00  7.00000000e+00  6.00000000e+00
  6.00000000e+00  6.00000000e+00  6.00000000e+00  6.00000000e+00  6.00000000e+00
  6.00000000e+00  1.00000000e+00  1.00000000e+00  1.00000000e+00  1.00000000e+00
  1.00000000e+00  1.00000000e+00  1.00000000e+00  1.00000000e+00  1.00000000e+00
  1.00000000e+00  1.00000000e+00  1.00000000e+00  6.00000000e+00  1.00000000e+00
  1.00000000e+00  6.00000000e+00  1.00000000e+00  1.00000000e+00
Current cartesian coordinates              R   N=          87
 -7.08885983e+00 -7.45222676e-01  1.02655193e+00 -5.80614769e+00  3.40706325e-01
  3.24705203e+00 -3.22278035e+00 -8.83487186e-01  3.74205129e+00 -1.50628952e+00
 -6.68475694e-01  1.54775380e+00  3.82006714e+00 -1.51581992e+00 -3.58374143e-01
  5.81203164e+00 -1.81562640e+00 -2.06062690e+00  6.66777517e+00  2.43096127e-01
 -3.48505228e+00 -5.33225189e+00 -1.80944284e+00 -8.58805484e-01 -2.86439626e+00
 -3.19106660e-01 -8.53363665e-01  3.51149661e+00  2.88641409e+00 -1.48765602e+00
  5.51123504e+00  2.59654783e+00 -3.19451250e+00 -7.02991306e+00  1.22698563e-01
  4.90483482e+00 -5.55450726e+00  2.38267069e+00  2.95950224e+00 -1.65464455e+00
 -9.53837305e-01 -2.40832981e+00 -3.29896938e+00  1.69925752e+00 -1.20495468e+00
 -6.20180696e+00 -1.69373237e+00 -2.73667787e+00 -4.88546639e+00 -3.81523598e+00
 -5.01202325e-01 -3.49871884e+00 -2.89312905e+00  4.20189670e+00 -2.32989813e+00
 -8.31062813e-03  5.39517854e+00 -8.35452509e+00 -2.08059891e+00  1.57252347e+00
  6.15348777e+00  4.20631680e+00 -4.29848973e+00  8.21898167e+00  8.94520579e-03
 -4.81177465e+00  6.70076988e+00 -3.65587450e+00 -2.27832928e+00  2.64818673e+00
  8.42845281e-01 -4.74640673e-02  2.61172237e+00  4.72395501e+00 -1.27741516e+00
  3.13780181e+00 -3.11793208e+00  7.32029676e-01  5.30880275e-01  1.16956747e+00
  1.86668471e+00 -1.64934983e-01  3.14498247e+00  1.76872038e+00  1.31208848e+00
  9.05632430e-01  3.76981232e+00
Integer atomic weights                     I   N=          29
          14          12          12          14          12          12
          12          12          12          12          12           1
           1           1           1           1           1           1
           1           1           1           1           1          12
           1           1          12           1           1
Real atomic weights                        R   N=          29
  1.40030740e+01  1.20000000e+01  1.20000000e+01  1.40030740e+01  1.20000000e+01
  1.20000000e+01  1.20000000e+01  1.20000000e+01  1.20000000e+01  1.20000000e+01
  1.20000000e+01  1.00782503e+00  1.00782503e+00  1.00782503e+00  1.00782503e+00
  1.00782503e+00  1.00782503e+00  1.00782503e+00  1.00782503e+00  1.00782503e+00
  1.00782503e+00  1.00782503e+00  1.00782503e+00  1.20000000e+01  1.00782503e+00
  1.00782503e+00  1.20000000e+01  1.00782503e+00  1.00782503e+00
Number of primitive shells                 I              285
Number of contracted shells                I              136
Pure/Cartesian d shells                    I                1
Pure/Cartesian f shells                    I                1
Highest angular momentum                   I                2
Largest degree of contraction              I                6
Shell types                                I   N=         136
           0           0           1           0           1           2
           0           1           0           0           1           0
           1           2           0           1           0           0
           1           0           1           2           0           1
           0           0           1           0           1           2
           0           1           0           0           1           0
           1           2           0           1           0           0
           1           0           1           2           0           1
           0           0           1           0           1           2
           0           1           0           0           1           0
           1           2           0           1           0           0
           1           0           1           2           0           1
           0           0           1           0           1           2
           0           1           0           0           1           0
           1           2           0           1           0           0
           0           0           0           0           0           0
           0           0           0           0           0           0
           0           0           0           0           0           0
           0           0           0           0           0           0
           1           0           1           2           0           1
           0           0           0           0           0           0
           1           0           1           2           0           1
           0           0           0           0
Number of primitives per shell             I   N=         136
           6           3           3           1           1           1
           1           1           6           3           3           1
           1           1           1           1           6           3
           3           1           1           1           1           1
           6           3           3           1           1           1
           1           1           6           3           3           1
           1           1           1           1           6           3
           3           1           1           1           1           1
           6           3           3           1           1           1
           1           1           6           3           3           1
           1           1           1           1           6           3
           3           1           1           1           1           1
           6           3           3           1           1           1
           1           1           6           3           3           1
           1           1           1           1           3           1
           3           1           3           1           3           1
           3           1           3           1           3           1
           3           1           3           1           3           1
           3           1           3           1           6           3
           3           1           1           1           1           1
           3           1           3           1           6           3
           3           1           1           1           1           1
           3           1           3           1
Shell to atom map                          I   N=         136
           1           1           1           1           1           1
           1           1           2           2           2           2
           2           2           2           2           3           3
           3           3           3           3           3           3
           4           4           4           4           4           4
           4           4           5           5           5           5
           5           5           5           5           6           6
           6           6           6           6           6           6
           7           7           7           7           7           7
           7           7           8           8           8           8
           8           8           8           8           9           9
           9           9           9           9           9           9
          10          10          10          10          10          10
          10          10          11          11          11          11
          11          11          11          11          12          12
          13          13          14          14          15          15
          16          16          17          17          18          18
          19          19          20          20          21          21
          22          22          23          23          24          24
          24          24          24          24          24          24
          25          25          26          26          27          27
          27          27          27          27          27          27
          28          28          29          29
Primitive exponents                        R   N=         285
  4.17351100e+03  6.27457900e+02  1.42902100e+02  4.02343300e+01  1.28202100e+01
  4.39043700e+00  1.16263580e+01  2.71628000e+00  7.72218000e-01  1.16263580e+01
  2.71628000e+00  7.72218000e-01  2.12031300e-01  2.12031300e-01  8.00000000e-01
  6.39000000e-02  6.39000000e-02  3.04752490e+03  4.57369510e+02  1.03948690e+02
  2.92101550e+01  9.28666300e+00  3.16392700e+00  7.86827240e+00  1.88128850e+00
  5.44249300e-01  7.86827240e+00  1.88128850e+00  5.44249300e-01  1.68714400e-01
  1.68714400e-01  8.00000000e-01  4.38000000e-02  4.38000000e-02  3.04752490e+03
  4.57369510e+02  1.03948690e+02  2.92101550e+01  9.28666300e+00  3.16392700e+00
  7.86827240e+00  1.88128850e+00  5.44249300e-01  7.86827240e+00  1.88128850e+00
  5.44249300e-01  1.68714400e-01  1.68714400e-01  8.00000000e-01  4.38000000e-02
  4.38000000e-02  4.17351100e+03  6.27457900e+02  1.42902100e+02  4.02343300e+01
  1.28202100e+01  4.39043700e+00  1.16263580e+01  2.71628000e+00  7.72218000e-01
  1.16263580e+01  2.71628000e+00  7.72218000e-01  2.12031300e-01  2.12031300e-01
  8.00000000e-01  6.39000000e-02  6.39000000e-02  3.04752490e+03  4.57369510e+02
  1.03948690e+02  2.92101550e+01  9.28666300e+00  3.16392700e+00  7.86827240e+00
  1.88128850e+00  5.44249300e-01  7.86827240e+00  1.88128850e+00  5.44249300e-01
  1.68714400e-01  1.68714400e-01  8.00000000e-01  4.38000000e-02  4.38000000e-02
  3.04752490e+03  4.57369510e+02  1.03948690e+02  2.92101550e+01  9.28666300e+00
  3.16392700e+00  7.86827240e+00  1.88128850e+00  5.44249300e-01  7.86827240e+00
  1.88128850e+00  5.44249300e-01  1.68714400e-01  1.68714400e-01  8.00000000e-01
  4.38000000e-02  4.38000000e-02  3.04752490e+03  4.57369510e+02  1.03948690e+02
  2.92101550e+01  9.28666300e+00  3.16392700e+00  7.86827240e+00  1.88128850e+00
  5.44249300e-01  7.86827240e+00  1.88128850e+00  5.44249300e-01  1.68714400e-01
  1.68714400e-01  8.00000000e-01  4.38000000e-02  4.38000000e-02  3.04752490e+03
  4.57369510e+02  1.03948690e+02  2.92101550e+01  9.28666300e+00  3.16392700e+00
  7.86827240e+00  1.88128850e+00  5.44249300e-01  7.86827240e+00  1.88128850e+00
  5.44249300e-01  1.68714400e-01  1.68714400e-01  8.00000000e-01  4.38000000e-02
  4.38000000e-02  3.04752490e+03  4.57369510e+02  1.03948690e+02  2.92101550e+01
  9.28666300e+00  3.16392700e+00  7.86827240e+00  1.88128850e+00  5.44249300e-01
  7.86827240e+00  1.88128850e+00  5.44249300e-01  1.68714400e-01  1.68714400e-01
  8.00000000e-01  4.38000000e-02  4.38000000e-02  3.04752490e+03  4.57369510e+02
  1.03948690e+02  2.92101550e+01  9.28666300e+00  3.16392700e+00  7.86827240e+00
  1.88128850e+00  5.44249300e-01  7.86827240e+00  1.88128850e+00  5.44249300e-01
  1.68714400e-01  1.68714400e-01  8.00000000e-01  4.38000000e-02  4.38000000e-02
  3.04752490e+03  4.57369510e+02  1.03948690e+02  2.92101550e+01  9.28666300e+00
  3.16392700e+00  7.86827240e+00  1.88128850e+00  5.44249300e-01  7.86827240e+00
  1.88128850e+00  5.44249300e-01  1.68714400e-01  1.68714400e-01  8.00000000e-01
  4.38000000e-02  4.38000000e-02  1.87311370e+01  2.82539370e+00  6.40121700e-01
  1.61277800e-01  1.87311370e+01  2.82539370e+00  6.40121700e-01  1.61277800e-01
  1.87311370e+01  2.82539370e+00  6.40121700e-01  1.61277800e-01  1.87311370e+01
  2.82539370e+00  6.40121700e-01  1.61277800e-01  1.87311370e+01  2.82539370e+00
  6.40121700e-01  1.61277800e-01  1.87311370e+01  2.82539370e+00  6.40121700e-01
  1.61277800e-01  1.87311370e+01  2.82539370e+00  6.40121700e-01  1.61277800e-01
  1.87311370e+01  2.82539370e+00  6.40121700e-01  1.61277800e-01  1.87311370e+01
  2.82539370e+00  6.40121700e-01  1.61277800e-01  1.87311370e+01  2.82539370e+00
  6.40121700e-01  1.61277800e-01  1.87311370e+01  2.82539370e+00  6.40121700e-01
  1.61277800e-01  1.87311370e+01  2.82539370e+00  6.40121700e-01  1.61277800e-01
  3.04752490e+03  4.57369510e+02  1.03948690e+02  2.92101550e+01  9.28666300e+00
  3.16392700e+00  7.86827240e+00  1.88128850e+00  5.44249300e-01  7.86827240e+00
  1.88128850e+00  5.44249300e-01  1.68714400e-01  1.68714400e-01  8.00000000e-01
  4.38000000e-02  4.38000000e-02  1.87311370e+01  2.82539370e+00  6.40121700e-01
  1.61277800e-01  1.87311370e+01  2.82539370e+00  6.40121700e-01  1.61277800e-01
  3.04752490e+03  4.57369510e+02  1.03948690e+02  2.92101550e+01  9.28666300e+00
  3.16392700e+00  7.86827240e+00  1.88128850e+00  5.44249300e-01  7.86827240e+00
  1.88128850e+00  5.44249300e-01  1.68714400e-01  1.68714400e-01  8.00000000e-01
  4.38000000e-02  4.38000000e-02  1.87311370e+01  2.82539370e+00  6.40121700e-01
  1.61277800e-01  1.87311370e+01  2.82539370e+00  6.40121700e-01  1.61277800e-01
Contraction coefficients                   R   N=         285
  1.83479944e-03  1.39949958e-02  6.85869792e-02  2.32240930e-01  4.69069858e-01
  3.60454891e-01 -1.14961023e-01 -1.69118034e-01  1.14585223e+00  6.75800232e-02
  3.23907111e-01  7.40895255e-01  1.00000000e+00  1.00000000e+00  1.00000000e+00
  1.00000000e+00  1.00000000e+00  1.83470016e-03  1.40373012e-02  6.88426061e-02
  2.32184421e-01  4.67941342e-01  3.62312032e-01 -1.19332409e-01 -1.60854212e-01
  1.14345648e+00  6.89990956e-02  3.16423980e-01  7.44308252e-01  1.00000000e+00
  1.00000000e+00  1.00000000e+00  1.00000000e+00  1.00000000e+00  1.83470016e-03
  1.40373012e-02  6.88426061e-02  2.32184421e-01  4.67941342e-01  3.62312032e-01
 -1.19332409e-01 -1.60854212e-01  1.14345648e+00  6.89990956e-02  3.16423980e-01
  7.44308252e-01  1.00000000e+00  1.00000000e+00  1.00000000e+00  1.00000000e+00
  1.00000000e+00  1.83479944e-03  1.39949958e-02  6.85869792e-02  2.32240930e-01
  4.69069858e-01  3.60454891e-01 -1.14961023e-01 -1.69118034e-01  1.14585223e+00
  6.75800232e-02  3.23907111e-01  7.40895255e-01  1.00000000e+00  1.00000000e+00
  1.00000000e+00  1.00000000e+00  1.00000000e+00  1.83470016e-03  1.40373012e-02
  6.88426061e-02  2.32184421e-01  4.67941342e-01  3.62312032e-01 -1.19332409e-01
 -1.60854212e-01  1.14345648e+00  6.89990956e-02  3.16423980e-01  7.44308252e-01
  1.00000000e+00  1.00000000e+00  1.00000000e+00  1.00000000e+00  1.00000000e+00
  1.83470016e-03  1.40373012e-02  6.88426061e-02  2.32184421e-01  4.67941342e-01
  3.62312032e-01 -1.19332409e-01 -1.60854212e-01  1.14345648e+00  6.89990956e-02
  3.16423980e-01  7.44308252e-01  1.00000000e+00  1.00000000e+00  1.00000000e+00
  1.00000000e+00  1.00000000e+00  1.83470016e-03  1.40373012e-02  6.88426061e-02
  2.32184421e-01  4.67941342e-01  3.62312032e-01 -1.19332409e-01 -1.60854212e-01
  1.14345648e+00  6.89990956e-02  3.16423980e-01  7.44308252e-01  1.00000000e+00
  1.00000000e+00  1.00000000e+00  1.00000000e+00  1.00000000e+00  1.83470016e-03
  1.40373012e-02  6.88426061e-02  2.32184421e-01  4.67941342e-01  3.62312032e-01
 -1.19332409e-01 -1.60854212e-01  1.14345648e+00  6.89990956e-02  3.16423980e-01
  7.44308252e-01  1.00000000e+00  1.00000000e+00  1.00000000e+00  1.00000000e+00
  1.00000000e+00  1.83470016e-03  1.40373012e-02  6.88426061e-02  2.32184421e-01
  4.67941342e-01  3.62312032e-01 -1.19332409e-01 -1.60854212e-01  1.14345648e+00
  6.89990956e-02  3.16423980e-01  7.44308252e-01  1.00000000e+00  1.00000000e+00
  1.00000000e+00  1.00000000e+00  1.00000000e+00  1.83470016e-03  1.40373012e-02
  6.88426061e-02  2.32184421e-01  4.67941342e-01  3.62312032e-01 -1.19332409e-01
 -1.60854212e-01  1.14345648e+00  6.89990956e-02  3.16423980e-01  7.44308252e-01
  1.00000000e+00  1.00000000e+00  1.00000000e+00  1.00000000e+00  1.00000000e+00
  1.83470016e-03  1.40373012e-02  6.88426061e-02  2.32184421e-01  4.67941342e-01
  3.62312032e-01 -1.19332409e-01 -1.60854212e-01  1.14345648e+00  6.89990956e-02
  3.16423980e-01  7.44308252e-01  1.00000000e+00  1.00000000e+00  1.00000000e+00
  1.00000000e+00  1.00000000e+00  3.34945995e-02  2.34726947e-01  8.13757318e-01
  1.00000000e+00  3.34945995e-02  2.34726947e-01  8.13757318e-01  1.00000000e+00
  3.34945995e-02  2.34726947e-01  8.13757318e-01  1.00000000e+00  3.34945995e-02
  2.34726947e-01  8.13757318e-01  1.00000000e+00  3.34945995e-02  2.34726947e-01
  8.13757318e-01  1.00000000e+00  3.34945995e-02  2.34726947e-01  8.13757318e-01
  1.00000000e+00  3.34945995e-02  2.34726947e-01  8.13757318e-01  1.00000000e+00
  3.34945995e-02  2.34726947e-01  8.13757318e-01  1.00000000e+00  3.34945995e-02
  2.34726947e-01  8.13757318e-01  1.00000000e+00  3.34945995e-02  2.34726947e-01
  8.13757318e-01  1.00000000e+00  3.34945995e-02  2.34726947e-01  8.13757318e-01
  1.00000000e+00  3.34945995e-02  2.34726947e-01  8.13757318e-01  1.00000000e+00
  1.83470016e-03  1.40373012e-02  6.88426061e-02  2.32184421e-01  4.67941342e-01
  3.62312032e-01 -1.19332409e-01 -1.60854212e-01  1.14345648e+00  6.89990956e-02
  3.16423980e-01  7.44308252e-01  1.00000000e+00  1.00000000e+00  1.00000000e+00
  1.00000000e+00  1.00000000e+00  3.34945995e-02  2.34726947e-01  8.13757318e-01
  1.00000000e+00  3.34945995e-02  2.34726947e-01  8.13757318e-01  1.00000000e+00
  1.83470016e-03  1.40373012e-02  6.88426061e-02  2.32184421e-01  4.67941342e-01
  3.62312032e-01 -1.19332409e-01 -1.60854212e-01  1.14345648e+00  6.89990956e-02
  3.16423980e-01  7.44308252e-01  1.00000000e+00  1.00000000e+00  1.00000000e+00
  1.00000000e+00  1.00000000e+00  3.34945995e-02  2.34726947e-01  8.13757318e-01
  1.00000000e+00  3.34945995e-02  2.34726947e-01  8.13757318e-01  1.00000000e+00
Coordinates of each shell                  R   N=         408
 -7.08885983e+00 -7.45222676e-01  1.02655193e+00 -7.08885983e+00 -7.45222676e-01
  1.02655193e+00 -7.08885983e+00 -7.45222676e-01  1.02655193e+00 -7.08885983e+00
 -7.45222676e-01  1.02655193e+00 -7.08885983e+00 -7.45222676e-01  1.02655193e+00
 -7.08885983e+00 -7.45222676e-01  1.02655193e+00 -7.08885983e+00 -7.45222676e-01
  1.02655193e+00 -7.08885983e+00 -7.45222676e-01  1.02655193e+00 -5.80614769e+00
  3.40706325e-01  3.24705203e+00 -5.80614769e+00  3.40706325e-01  3.24705203e+00
 -5.80614769e+00  3.40706325e-01  3.24705203e+00 -5.80614769e+00  3.40706325e-01
  3.24705203e+00 -5.80614769e+00  3.40706325e-01  3.24705203e+00 -5.80614769e+00
  3.40706325e-01  3.24705203e+00 -5.80614769e+00  3.40706325e-01  3.24705203e+00
 -5.80614769e+00  3.40706325e-01  3.24705203e+00 -3.22278035e+00 -8.83487186e-01
  3.74205129e+00 -3.22278035e+00 -8.83487186e-01  3.74205129e+00 -3.22278035e+00
 -8.83487186e-01  3.74205129e+00 -3.22278035e+00 -8.83487186e-01  3.74205129e+00
 -3.22278035e+00 -8.83487186e-01  3.74205129e+00 -3.22278035e+00 -8.83487186e-01
  3.74205129e+00 -3.22278035e+00 -8.83487186e-01  3.74205129e+00 -3.22278035e+00
 -8.83487186e-01  3.74205129e+00 -1.50628952e+00 -6.68475694e-01  1.54775380e+00
 -1.50628952e+00 -6.68475694e-01  1.54775380e+00 -1.50628952e+00 -6.68475694e-01
  1.54775380e+00 -1.50628952e+00 -6.68475694e-01  1.54775380e+00 -1.50628952e+00
 -6.68475694e-01  1.54775380e+00 -1.50628952e+00 -6.68475694e-01  1.54775380e+00
 -1.50628952e+00 -6.68475694e-01  1.54775380e+00 -1.50628952e+00 -6.68475694e-01
  1.54775380e+00  3.82006714e+00 -1.51581992e+00 -3.58374143e-01  3.82006714e+00
 -1.51581992e+00 -3.58374143e-01  3.82006714e+00 -1.51581992e+00 -3.58374143e-01
  3.82006714e+00 -1.51581992e+00 -3.58374143e-01  3.82006714e+00 -1.51581992e+00
 -3.58374143e-01  3.82006714e+00 -1.51581992e+00 -3.58374143e-01  3.82006714e+00
 -1.51581992e+00 -3.58374143e-01  3.82006714e+00 -1.51581992e+00 -3.58374143e-01
  5.81203164e+00 -1.81562640e+00 -2.06062690e+00  5.81203164e+00 -1.81562640e+00
 -2.06062690e+00  5.81203164e+00 -1.81562640e+00 -2.06062690e+00  5.81203164e+00
 -1.81562640e+00 -2.06062690e+00  5.81203164e+00 -1.81562640e+00 -2.06062690e+00
  5.81203164e+00 -1.81562640e+00 -2.06062690e+00  5.81203164e+00 -1.81562640e+00
 -2.06062690e+00  5.81203164e+00 -1.81562640e+00 -2.06062690e+00  6.66777517e+00
  2.43096127e-01 -3.48505228e+00  6.66777517e+00  2.43096127e-01 -3.48505228e+00
  6.66777517e+00  2.43096127e-01 -3.48505228e+00  6.66777517e+00  2.43096127e-01
 -3.48505228e+00  6.66777517e+00  2.43096127e-01 -3.48505228e+00  6.66777517e+00
  2.43096127e-01 -3.48505228e+00  6.66777517e+00  2.43096127e-01 -3.48505228e+00
  6.66777517e+00  2.43096127e-01 -3.48505228e+00 -5.33225189e+00 -1.80944284e+00
 -8.58805484e-01 -5.33225189e+00 -1.80944284e+00 -8.58805484e-01 -5.33225189e+00
 -1.80944284e+00 -8.58805484e-01 -5.33225189e+00 -1.80944284e+00 -8.58805484e-01
 -5.33225189e+00 -1.80944284e+00 -8.58805484e-01 -5.33225189e+00 -1.80944284e+00
 -8.58805484e-01 -5.33225189e+00 -1.80944284e+00 -8.58805484e-01 -5.33225189e+00
 -1.80944284e+00 -8.58805484e-01 -2.86439626e+00 -3.19106660e-01 -8.53363665e-01
 -2.86439626e+00 -3.19106660e-01 -8.53363665e-01 -2.86439626e+00 -3.19106660e-01
 -8.53363665e-01 -2.86439626e+00 -3.19106660e-01 -8.53363665e-01 -2.86439626e+00
 -3.19106660e-01 -8.53363665e-01 -2.86439626e+00 -3.19106660e-01 -8.53363665e-01
 -2.86439626e+00 -3.19106660e-01 -8.53363665e-01 -2.86439626e+00 -3.19106660e-01
 -8.53363665e-01  3.51149661e+00  2.88641409e+00 -1.48765602e+00  3.51149661e+00
  2.88641409e+00 -1.48765602e+00  3.51149661e+00  2.88641409e+00 -1.48765602e+00
  3.51149661e+00  2.88641409e+00 -1.48765602e+00  3.51149661e+00  2.88641409e+00
 -1.48765602e+00  3.51149661e+00  2.88641409e+00 -1.48765602e+00  3.51149661e+00
  2.88641409e+00 -1.48765602e+00  3.51149661e+00  2.88641409e+00 -1.48765602e+00
  5.51123504e+00  2.59654783e+00 -3.19451250e+00  5.51123504e+00  2.59654783e+00
 -3.19451250e+00  5.51123504e+00  2.59654783e+00 -3.19451250e+00  5.51123504e+00
  2.59654783e+00 -3.19451250e+00  5.51123504e+00  2.59654783e+00 -3.19451250e+00
  5.51123504e+00  2.59654783e+00 -3.19451250e+00  5.51123504e+00  2.59654783e+00
 -3.19451250e+00  5.51123504e+00  2.59654783e+00 -3.19451250e+00 -7.02991306e+00
  1.22698563e-01  4.90483482e+00 -7.02991306e+00  1.22698563e-01  4.90483482e+00
 -5.55450726e+00  2.38267069e+00  2.95950224e+00 -5.55450726e+00  2.38267069e+00
  2.95950224e+00 -1.65464455e+00 -9.53837305e-01 -2.40832981e+00 -1.65464455e+00
 -9.53837305e-01 -2.40832981e+00 -3.29896938e+00  1.69925752e+00 -1.20495468e+00
 -3.29896938e+00  1.69925752e+00 -1.20495468e+00 -6.20180696e+00 -1.69373237e+00
 -2.73667787e+00 -6.20180696e+00 -1.69373237e+00 -2.73667787e+00 -4.88546639e+00
 -3.81523598e+00 -5.01202325e-01 -4.88546639e+00 -3.81523598e+00 -5.01202325e-01
 -3.49871884e+00 -2.89312905e+00  4.20189670e+00 -3.49871884e+00 -2.89312905e+00
  4.20189670e+00 -2.32989813e+00 -8.31062813e-03  5.39517854e+00 -2.32989813e+00
 -8.31062813e-03  5.39517854e+00 -8.35452509e+00 -2.08059891e+00  1.57252347e+00
 -8.35452509e+00 -2.08059891e+00  1.57252347e+00  6.15348777e+00  4.20631680e+00
 -4.29848973e+00  6.15348777e+00  4.20631680e+00 -4.29848973e+00  8.21898167e+00
  8.94520579e-03 -4.81177465e+00  8.21898167e+00  8.94520579e-03 -4.81177465e+00
  6.70076988e+00 -3.65587450e+00 -2.27832928e+00  6.70076988e+00 -3.65587450e+00
 -2.27832928e+00  2.64818673e+00  8.42845281e-01 -4.74640673e-02  2.64818673e+00
  8.42845281e-01 -4.74640673e-02  2.64818673e+00  8.42845281e-01 -4.74640673e-02
  2.64818673e+00  8.42845281e-01 -4.74640673e-02  2.64818673e+00  8.42845281e-01
 -4.74640673e-02  2.64818673e+00  8.42845281e-01 -4.74640673e-02  2.64818673e+00
  8.42845281e-01 -4.74640673e-02  2.64818673e+00  8.42845281e-01 -4.74640673e-02
  2.61172237e+00  4.72395501e+00 -1.27741516e+00  2.61172237e+00  4.72395501e+00
 -1.27741516e+00  3.13780181e+00 -3.11793208e+00  7.32029676e-01  3.13780181e+00
 -3.11793208e+00  7.32029676e-01  5.30880275e-01  1.16956747e+00  1.86668471e+00
  5.30880275e-01  1.16956747e+00  1.86668471e+00  5.30880275e-01  1.16956747e+00
  1.86668471e+00  5.30880275e-01  1.16956747e+00  1.86668471e+00  5.30880275e-01
  1.16956747e+00  1.86668471e+00  5.30880275e-01  1.16956747e+00  1.86668471e+00
  5.30880275e-01  1.16956747e+00  1.86668471e+00  5.30880275e-01  1.16956747e+00
  1.86668471e+00 -1.64934983e-01  3.14498247e+00  1.76872038e+00 -1.64934983e-01
  3.14498247e+00  1.76872038e+00  1.31208848e+00  9.05632430e-01  3.76981232e+00
  1.31208848e+00  9.05632430e-01  3.76981232e+00
Total Energy                               R     -5.382960415098321e+02
Alpha Orbital Energies                     R   N=         279
 -1.43297853e+01 -1.43229437e+01 -1.02174957e+01 -1.02119972e+01 -1.02117810e+01
 -1.02104974e+01 -1.02083826e+01 -1.01989594e+01 -1.01950717e+01 -1.01945648e+01
 -1.01939339e+01 -1.01932545e+01 -1.01900695e+01 -9.37905213e-01 -8.88732135e-01
 -8.54154422e-01 -7.68567046e-01 -7.60795218e-01 -7.46121822e-01 -7.04676961e-01
 -6.49473639e-01 -6.42352688e-01 -6.06943257e-01 -5.85024439e-01 -5.44549133e-01
 -5.17022911e-01 -5.16011562e-01 -4.88810817e-01 -4.71919804e-01 -4.62374598e-01
 -4.48351813e-01 -4.36303379e-01 -4.21680059e-01 -4.15871544e-01 -4.12896344e-01
 -4.01601364e-01 -3.88388847e-01 -3.83797780e-01 -3.70881056e-01 -3.64679373e-01
 -3.52847114e-01 -3.43593284e-01 -3.40285174e-01 -3.27573661e-01 -2.53997799e-01
 -2.48364621e-01 -2.24442164e-01 -2.08646828e-01 -1.60064008e-02 -1.09836479e-02
 -1.54603450e-03  7.56577400e-03  1.34664251e-02  2.10651968e-02  2.87383464e-02
  3.31129580e-02  3.99372085e-02  4.43907135e-02  5.14165036e-02  5.53541559e-02
  5.82905878e-02  6.17184368e-02  7.07850472e-02  7.39321353e-02  8.36880916e-02
  8.94897777e-02  9.13984741e-02  9.33774895e-02  1.00009745e-01  1.06436968e-01
  1.13932294e-01  1.17297656e-01  1.25578472e-01  1.27382837e-01  1.33113731e-01
  1.39300955e-01  1.45139729e-01  1.54992630e-01  1.57702516e-01  1.61344840e-01
  1.66134788e-01  1.72027275e-01  1.75554951e-01  1.78947267e-01  1.80945675e-01
  1.83112068e-01  1.90704915e-01  1.96554950e-01  1.98962519e-01  2.06333843e-01
  2.09078782e-01  2.11353614e-01  2.16774496e-01  2.20151273e-01  2.20808002e-01
  2.24893156e-01  2.31542873e-01  2.37668091e-01  2.41538429e-01  2.48229351e-01
  2.51962596e-01  2.54210414e-01  2.57887802e-01  2.64179803e-01  2.68001434e-01
  2.69843858e-01  2.74648719e-01  2.79116999e-01  2.83935204e-01  2.88218907e-01
  2.88909606e-01  2.97302927e-01  3.05417196e-01  3.12714359e-01  3.16360126e-01
  3.24645270e-01  3.33018823e-01  3.34764494e-01  3.41158257e-01  3.51564483e-01
  3.56508536e-01  3.57385332e-01  3.72286843e-01  3.80935662e-01  3.87168569e-01
  3.95324032e-01  3.97981125e-01  4.00580260e-01  4.14001852e-01  4.38868398e-01
  4.57926077e-01  5.77574485e-01  6.02206013e-01  6.38614317e-01  6.65576096e-01
  6.73566325e-01  6.79855485e-01  6.91976245e-01  6.97788982e-01  7.04005662e-01
  7.16125976e-01  7.24641088e-01  7.29773096e-01  7.33674031e-01  7.45112178e-01
  7.51349731e-01  7.58588389e-01  7.66063498e-01  7.73391302e-01  7.78640807e-01
  7.87935307e-01  8.01182093e-01  8.20527843e-01  8.41940123e-01  8.50449709e-01
  8.56771402e-01  8.74589464e-01  8.95692426e-01  9.10162013e-01  9.24636711e-01
  9.42488824e-01  9.49808512e-01  9.51567558e-01  9.59828864e-01  9.70461435e-01
  9.89078774e-01  1.00002251e+00  1.00299027e+00  1.01193295e+00  1.02590352e+00
  1.03057501e+00  1.04356628e+00  1.05696170e+00  1.07553561e+00  1.09484960e+00
  1.09720716e+00  1.10495065e+00  1.11190772e+00  1.12726750e+00  1.12835529e+00
  1.13432769e+00  1.14915237e+00  1.16258228e+00  1.17134727e+00  1.18044669e+00
  1.20405216e+00  1.21840170e+00  1.23794407e+00  1.26086609e+00  1.26653968e+00
  1.31578818e+00  1.35722833e+00  1.37658295e+00  1.38176366e+00  1.40847789e+00
  1.43785893e+00  1.45372145e+00  1.47648025e+00  1.47805751e+00  1.48636895e+00
  1.49553160e+00  1.51069025e+00  1.53525018e+00  1.56291668e+00  1.58301169e+00
  1.62207761e+00  1.65420602e+00  1.71909274e+00  1.74134757e+00  1.79530363e+00
  1.83527009e+00  1.84546550e+00  1.85111590e+00  1.88554207e+00  1.89426177e+00
  1.90864493e+00  1.91271740e+00  1.93743846e+00  1.94250846e+00  1.96615327e+00
  1.98869160e+00  2.00472326e+00  2.02056967e+00  2.04748496e+00  2.05410833e+00
  2.09317366e+00  2.10300305e+00  2.10823289e+00  2.12726623e+00  2.13909839e+00
  2.15775606e+00  2.16612888e+00  2.18445059e+00  2.20403115e+00  2.22833012e+00
  2.26905315e+00  2.29691824e+00  2.30194300e+00  2.31069408e+00  2.31834666e+00
  2.36032732e+00  2.37350426e+00  2.39766716e+00  2.40301314e+00  2.44435289e+00
  2.51603821e+00  2.54042998e+00  2.54687060e+00  2.58084440e+00  2.60309297e+00
  2.62068700e+00  2.63753325e+00  2.64768244e+00  2.67751289e+00  2.74137196e+00
  2.75280001e+00  2.75976634e+00  2.76776415e+00  2.77927634e+00  2.81966668e+00
  2.84783951e+00  2.89018452e+00  2.91683196e+00  2.98006639e+00  3.08339192e+00