Generated by Psi4
     FORCE                           RHF                       TESTBAS
Number of atoms                            I               26
Charge                                     I                0
Multiplicity                               I                1
Number of electrons                        I              104
Number of alpha electrons                  I               52
Number of beta electrons                   I               52
Number of basis functions                  I              277
Number of independent functions            I              277
Atomic numbers                             I   N=          26
           7           6           6           7           6           6
           6           6           6           6           6           6
           1           1           1           1           1           1
           1           1           1           1           1           1
           1          17
Nuclear charges                            R   N=          26
  7.00000000e+00  6.00000000e+00  6.00000000e+00  7.00000000e+00  6.00000000e+00
  6.00000000e+00  6.00000000e+00  6.00000000e+00  6.00000000e+00  6.00000000e+00
  6.00000000e+00  6.00000000e+00  1.00000000e+00  1.00000000e+00  1.00000000e+00
  1.00000000e+00  1.00000000e+00  1.00000000e+00  1.00000000e+00  1.00000000e+00
  1.00000000e+00  1.00000000e+00  1.00000000e+00  1.00000000e+00  1.00000000e+00
  1.70000000e+01
Current cartesian coordinates              R   N=          78
 -7.70906418e+00 -9.71542125e-02  1.82152490e+00 -5.62306635e+00  8.90048678e-01
  3.36915095e+00 -3.03303396e+00 -2.26981485e-01  2.70150273e+00 -2.49082463e+00
  2.17627387e-01  2.86608300e-02  2.01896659e+00 -4.56442478e-01  6.30858265e-01
 -3.54955706e-02  3.90922914e-01 -8.58767596e-01  4.47544785e+00 -2.58330713e-01
 -2.84995820e-01  5.03043977e+00  7.38705476e-01 -2.65851939e+00 -6.91412560e+00
 -1.01256818e+00 -6.78726193e-01 -4.66032426e+00  5.05476062e-01 -1.66033746e+00
  5.14090300e-01  1.41166130e+00 -3.27072919e+00  2.99757354e+00  1.56291447e+00
 -4.12965118e+00 -6.03415907e+00  5.29615698e-01  5.36559418e+00 -5.52047346e+00
  2.95110352e+00  3.14060933e+00  1.71031959e+00 -1.31261798e+00  2.46324699e+00
 -9.90816375e-01  2.13948179e+00 -4.45444727e+00 -4.16013690e+00 -2.24231093e-01
 -3.53042177e+00 -5.19899789e+00  2.50509946e+00 -1.89355116e+00 -8.48738232e+00
 -8.11844406e-01 -2.01420562e+00 -6.37010750e+00 -3.02550710e+00 -6.56836651e-01
 -2.97495318e+00 -2.25903918e+00  3.16992735e+00 -1.58961992e+00  7.12789894e-01
  3.85369074e+00 -8.65428732e+00 -1.47924835e+00  2.75841271e+00  3.36171322e+00
  2.36982972e+00 -5.98385187e+00  6.96427251e+00  8.69676604e-01 -3.32224958e+00
  6.97265303e+00 -1.35034965e+00  1.63822970e+00
Integer atomic weights                     I   N=          26
          14          12          12          14          12          12
          12          12          12          12          12          12
           1           1           1           1           1           1
           1           1           1           1           1           1
           1          34
Real atomic weights                        R   N=          26
  1.40030740e+01  1.20000000e+01  1.20000000e+01  1.40030740e+01  1.20000000e+01
  1.20000000e+01  1.20000000e+01  1.20000000e+01  1.20000000e+01  1.20000000e+01
  1.20000000e+01  1.20000000e+01  1.00782503e+00  1.00782503e+00  1.00782503e+00
  1.00782503e+00  1.00782503e+00  1.00782503e+00  1.00782503e+00  1.00782503e+00
  1.00782503e+00  1.00782503e+00  1.00782503e+00  1.00782503e+00  1.00782503e+00
  3.49688527e+01
Number of primitive shells                 I              285
Number of contracted shells                I              132
Pure/Cartesian d shells                    I                1
Pure/Cartesian f shells                    I                1
Highest angular momentum                   I                2
Largest degree of contraction              I                6
Shell types                                I   N=         132
           0           0           1           0           1           2
           0           1           0           0           1           0
           1           2           0           1           0           0
           1           0           1           2           0           1
           0           0           1           0           1           2
           0           1           0           0           1           0
           1           2           0           1           0           0
           1           0           1           2           0           1
           0           0           1           0           1           2
           0           1           0           0           1           0
           1           2           0           1           0           0
           1           0           1           2           0           1
           0           0           1           0           1           2
           0           1           0           0           1           0
           1           2           0           1           0           0
           1           0           1           2           0           1
           0           0           0           0           0           0
           0           0           0           0           0           0
           0           0           0           0           0           0
           0           0           0           0           0           0
           0           0           0           0           1           0
           1           0           1           2           0           1
Number of primitives per shell             I   N=         132
           6           3           3           1           1           1
           1           1           6           3           3           1
           1           1           1           1           6           3
           3           1           1           1           1           1
           6           3           3           1           1           1
           1           1           6           3           3           1
           1           1           1           1           6           3
           3           1           1           1           1           1
           6           3           3           1           1           1
           1           1           6           3           3           1
           1           1           1           1           6           3
           3           1           1           1           1           1
           6           3           3           1           1           1
           1           1           6           3           3           1
           1           1           1           1           6           3
           3           1           1           1           1           1
           3           1           3           1           3           1
           3           1           3           1           3           1
           3           1           3           1           3           1
           3           1           3           1           3           1
           3           1           6           6           6           3
           3           1           1           1           1           1
Shell to atom map                          I   N=         132
           1           1           1           1           1           1
           1           1           2           2           2           2
           2           2           2           2           3           3
           3           3           3           3           3           3
           4           4           4           4           4           4
           4           4           5           5           5           5
           5           5           5           5           6           6
           6           6           6           6           6           6
           7           7           7           7           7           7
           7           7           8           8           8           8
           8           8           8           8           9           9
           9           9           9           9           9           9
          10          10          10          10          10          10
          10          10          11          11          11          11
          11          11          11          11          12          12
          12          12          12          12          12          12
          13          13          14          14          15          15
          16          16          17          17          18          18
          19          19          20          20          21          21
          22          22          23          23          24          24
          25          25          26          26          26          26
          26          26          26          26          26          26
Primitive exponents                        R   N=         285
  4.17351100e+03  6.27457900e+02  1.42902100e+02  4.02343300e+01  1.28202100e+01
  4.39043700e+00  1.16263580e+01  2.71628000e+00  7.72218000e-01  1.16263580e+01
  2.71628000e+00  7.72218000e-01  2.12031300e-01  2.12031300e-01  8.00000000e-01
  6.39000000e-02  6.39000000e-02  3.04752490e+03  4.57369510e+02  1.03948690e+02
  2.92101550e+01  9.28666300e+00  3.16392700e+00  7.86827240e+00  1.88128850e+00
  5.44249300e-01  7.86827240e+00  1.88128850e+00  5.44249300e-01  1.68714400e-01
  1.68714400e-01  8.00000000e-01  4.38000000e-02  4.38000000e-02  3.04752490e+03
  4.57369510e+02  1.03948690e+02  2.92101550e+01  9.28666300e+00  3.16392700e+00
  7.86827240e+00  1.88128850e+00  5.44249300e-01  7.86827240e+00  1.88128850e+00
  5.44249300e-01  1.68714400e-01  1.68714400e-01  8.00000000e-01  4.38000000e-02
  4.38000000e-02  4.17351100e+03  6.27457900e+02  1.42902100e+02  4.02343300e+01
  1.28202100e+01  4.39043700e+00  1.16263580e+01  2.71628000e+00  7.72218000e-01
  1.16263580e+01  2.71628000e+00  7.72218000e-01  2.12031300e-01  2.12031300e-01
  8.00000000e-01  6.39000000e-02  6.39000000e-02  3.04752490e+03  4.57369510e+02
  1.03948690e+02  2.92101550e+01  9.28666300e+00  3.16392700e+00  7.86827240e+00
  1.88128850e+00  5.44249300e-01  7.86827240e+00  1.88128850e+00  5.44249300e-01
  1.68714400e-01  1.68714400e-01  8.00000000e-01  4.38000000e-02  4.38000000e-02
  3.04752490e+03  4.57369510e+02  1.03948690e+02  2.92101550e+01  9.28666300e+00
  3.16392700e+00  7.86827240e+00  1.88128850e+00  5.44249300e-01  7.86827240e+00
  1.88128850e+00  5.44249300e-01  1.68714400e-01  1.68714400e-01  8.00000000e-01
  4.38000000e-02  4.38000000e-02  3.04752490e+03  4.57369510e+02  1.03948690e+02
  2.92101550e+01  9.28666300e+00  3.16392700e+00  7.86827240e+00  1.88128850e+00
  5.44249300e-01  7.86827240e+00  1.88128850e+00  5.44249300e-01  1.68714400e-01
  1.68714400e-01  8.00000000e-01  4.38000000e-02  4.38000000e-02  3.04752490e+03
  4.57369510e+02  1.03948690e+02  2.92101550e+01  9.28666300e+00  3.16392700e+00
  7.86827240e+00  1.88128850e+00  5.44249300e-01  7.86827240e+00  1.88128850e+00
  5.44249300e-01  1.68714400e-01  1.68714400e-01  8.00000000e-01  4.38000000e-02
  4.38000000e-02  3.04752490e+03  4.57369510e+02  1.03948690e+02  2.92101550e+01
  9.28666300e+00  3.16392700e+00  7.86827240e+00  1.88128850e+00  5.44249300e-01
  7.86827240e+00  1.88128850e+00  5.44249300e-01  1.68714400e-01  1.68714400e-01
  8.00000000e-01  4.38000000e-02  4.38000000e-02  3.04752490e+03  4.57369510e+02
  1.03948690e+02  2.92101550e+01  9.28666300e+00  3.16392700e+00  7.86827240e+00
  1.88128850e+00  5.44249300e-01  7.86827240e+00  1.88128850e+00  5.44249300e-01
  1.68714400e-01  1.68714400e-01  8.00000000e-01  4.38000000e-02  4.38000000e-02
  3.04752490e+03  4.57369510e+02  1.03948690e+02  2.92101550e+01  9.28666300e+00
  3.16392700e+00  7.86827240e+00  1.88128850e+00  5.44249300e-01  7.86827240e+00
  1.88128850e+00  5.44249300e-01  1.68714400e-01  1.68714400e-01  8.00000000e-01
  4.38000000e-02  4.38000000e-02  3.04752490e+03  4.57369510e+02  1.03948690e+02
  2.92101550e+01  9.28666300e+00  3.16392700e+00  7.86827240e+00  1.88128850e+00
  5.44249300e-01  7.86827240e+00  1.88128850e+00  5.44249300e-01  1.68714400e-01
  1.68714400e-01  8.00000000e-01  4.38000000e-02  4.38000000e-02  1.87311370e+01
  2.82539370e+00  6.40121700e-01  1.61277800e-01  1.87311370e+01  2.82539370e+00
  6.40121700e-01  1.61277800e-01  1.87311370e+01  2.82539370e+00  6.40121700e-01
  1.61277800e-01  1.87311370e+01  2.82539370e+00  6.40121700e-01  1.61277800e-01
  1.87311370e+01  2.82539370e+00  6.40121700e-01  1.61277800e-01  1.87311370e+01
  2.82539370e+00  6.40121700e-01  1.61277800e-01  1.87311370e+01  2.82539370e+00
  6.40121700e-01  1.61277800e-01  1.87311370e+01  2.82539370e+00  6.40121700e-01
  1.61277800e-01  1.87311370e+01  2.82539370e+00  6.40121700e-01  1.61277800e-01
  1.87311370e+01  2.82539370e+00  6.40121700e-01  1.61277800e-01  1.87311370e+01
  2.82539370e+00  6.40121700e-01  1.61277800e-01  1.87311370e+01  2.82539370e+00
  6.40121700e-01  1.61277800e-01  1.87311370e+01  2.82539370e+00  6.40121700e-01
  1.61277800e-01  2.51801000e+04  3.78035000e+03  8.60474000e+02  2.42145000e+02
  7.73349000e+01  2.62470000e+01  4.91765000e+02  1.16984000e+02  3.74153000e+01
  1.37834000e+01  5.45215000e+00  2.22588000e+00  4.91765000e+02  1.16984000e+02
  3.74153000e+01  1.37834000e+01  5.45215000e+00  2.22588000e+00  3.18649000e+00
  1.14427000e+00  4.20377000e-01  3.18649000e+00  1.14427000e+00  4.20377000e-01
  1.42657000e-01  1.42657000e-01  7.50000000e-01  4.83000000e-02  4.83000000e-02
Contraction coefficients                   R   N=         285
  1.83479944e-03  1.39949958e-02  6.85869792e-02  2.32240930e-01  4.69069858e-01
  3.60454891e-01 -1.14961023e-01 -1.69118034e-01  1.14585223e+00  6.75800232e-02
  3.23907111e-01  7.40895255e-01  1.00000000e+00  1.00000000e+00  1.00000000e+00
  1.00000000e+00  1.00000000e+00  1.83470016e-03  1.40373012e-02  6.88426061e-02
  2.32184421e-01  4.67941342e-01  3.62312032e-01 -1.19332409e-01 -1.60854212e-01
  1.14345648e+00  6.89990956e-02  3.16423980e-01  7.44308252e-01  1.00000000e+00
  1.00000000e+00  1.00000000e+00  1.00000000e+00  1.00000000e+00  1.83470016e-03
  1.40373012e-02  6.88426061e-02  2.32184421e-01  4.67941342e-01  3.62312032e-01
 -1.19332409e-01 -1.60854212e-01  1.14345648e+00  6.89990956e-02  3.16423980e-01
  7.44308252e-01  1.00000000e+00  1.00000000e+00  1.00000000e+00  1.00000000e+00
  1.00000000e+00  1.83479944e-03  1.39949958e-02  6.85869792e-02  2.32240930e-01
  4.69069858e-01  3.60454891e-01 -1.14961023e-01 -1.69118034e-01  1.14585223e+00
  6.75800232e-02  3.23907111e-01  7.40895255e-01  1.00000000e+00  1.00000000e+00
  1.00000000e+00  1.00000000e+00  1.00000000e+00  1.83470016e-03  1.40373012e-02
  6.88426061e-02  2.32184421e-01  4.67941342e-01  3.62312032e-01 -1.19332409e-01
 -1.60854212e-01  1.14345648e+00  6.89990956e-02  3.16423980e-01  7.44308252e-01
  1.00000000e+00  1.00000000e+00  1.00000000e+00  1.00000000e+00  1.00000000e+00
  1.83470016e-03  1.40373012e-02  6.88426061e-02  2.32184421e-01  4.67941342e-01
  3.62312032e-01 -1.19332409e-01 -1.60854212e-01  1.14345648e+00  6.89990956e-02
  3.16423980e-01  7.44308252e-01  1.00000000e+00  1.00000000e+00  1.00000000e+00
  1.00000000e+00  1.00000000e+00  1.83470016e-03  1.40373012e-02  6.88426061e-02
  2.32184421e-01  4.67941342e-01  3.62312032e-01 -1.19332409e-01 -1.60854212e-01
  1.14345648e+00  6.89990956e-02  3.16423980e-01  7.44308252e-01  1.00000000e+00
  1.00000000e+00  1.00000000e+00  1.00000000e+00  1.00000000e+00  1.83470016e-03
  1.40373012e-02  6.88426061e-02  2.32184421e-01  4.67941342e-01  3.62312032e-01
 -1.19332409e-01 -1.60854212e-01  1.14345648e+00  6.89990956e-02  3.16423980e-01
  7.44308252e-01  1.00000000e+00  1.00000000e+00  1.00000000e+00  1.00000000e+00
  1.00000000e+00  1.83470016e-03  1.40373012e-02  6.88426061e-02  2.32184421e-01
  4.67941342e-01  3.62312032e-01 -1.19332409e-01 -1.60854212e-01  1.14345648e+00
  6.89990956e-02  3.16423980e-01  7.44308252e-01  1.00000000e+00  1.00000000e+00
  1.00000000e+00  1.00000000e+00  1.00000000e+00  1.83470016e-03  1.40373012e-02
  6.88426061e-02  2.32184421e-01  4.67941342e-01  3.62312032e-01 -1.19332409e-01
 -1.60854212e-01  1.14345648e+00  6.89990956e-02  3.16423980e-01  7.44308252e-01
  1.00000000e+00  1.00000000e+00  1.00000000e+00  1.00000000e+00  1.00000000e+00
  1.83470016e-03  1.40373012e-02  6.88426061e-02  2.32184421e-01  4.67941342e-01
  3.62312032e-01 -1.19332409e-01 -1.60854212e-01  1.14345648e+00  6.89990956e-02
  3.16423980e-01  7.44308252e-01  1.00000000e+00  1.00000000e+00  1.00000000e+00
  1.00000000e+00  1.00000000e+00  1.83470016e-03  1.40373012e-02  6.88426061e-02
  2.32184421e-01  4.67941342e-01  3.62312032e-01 -1.19332409e-01 -1.60854212e-01
  1.14345648e+00  6.89990956e-02  3.16423980e-01  7.44308252e-01  1.00000000e+00
  1.00000000e+00  1.00000000e+00  1.00000000e+00  1.00000000e+00  3.34945995e-02
  2.34726947e-01  8.13757318e-01  1.00000000e+00  3.34945995e-02  2.34726947e-01
  8.13757318e-01  1.00000000e+00  3.34945995e-02  2.34726947e-01  8.13757318e-01
  1.00000000e+00  3.34945995e-02  2.34726947e-01  8.13757318e-01  1.00000000e+00
  3.34945995e-02  2.34726947e-01  8.13757318e-01  1.00000000e+00  3.34945995e-02
  2.34726947e-01  8.13757318e-01  1.00000000e+00  3.34945995e-02  2.34726947e-01
  8.13757318e-01  1.00000000e+00  3.34945995e-02  2.34726947e-01  8.13757318e-01
  1.00000000e+00  3.34945995e-02  2.34726947e-01  8.13757318e-01  1.00000000e+00
  3.34945995e-02  2.34726947e-01  8.13757318e-01  1.00000000e+00  3.34945995e-02
  2.34726947e-01  8.13757318e-01  1.00000000e+00  3.34945995e-02  2.34726947e-01
  8.13757318e-01  1.00000000e+00  3.34945995e-02  2.34726947e-01  8.13757318e-01
  1.00000000e+00  1.83300031e-03  1.40340024e-02  6.90970118e-02  2.37452040e-01
  4.83034082e-01  3.39856058e-01 -2.29740199e-03 -3.07140266e-02 -1.12528097e-01
  4.50160390e-02  5.89353510e-01  4.65206403e-01  3.98940055e-03  3.03180042e-02
  1.29880018e-01  3.27951045e-01  4.53527062e-01  2.52154035e-01 -2.51831288e-01
  6.15893150e-02  1.06018542e+00 -1.42990127e-02  3.23572288e-01  7.43507661e-01
  1.00000000e+00  1.00000000e+00  1.00000000e+00  1.00000000e+00  1.00000000e+00
Coordinates of each shell                  R   N=         396
 -7.70906418e+00 -9.71542125e-02  1.82152490e+00 -7.70906418e+00 -9.71542125e-02
  1.82152490e+00 -7.70906418e+00 -9.71542125e-02  1.82152490e+00 -7.70906418e+00
 -9.71542125e-02  1.82152490e+00 -7.70906418e+00 -9.71542125e-02  1.82152490e+00
 -7.70906418e+00 -9.71542125e-02  1.82152490e+00 -7.70906418e+00 -9.71542125e-02
  1.82152490e+00 -7.70906418e+00 -9.71542125e-02  1.82152490e+00 -5.62306635e+00
  8.90048678e-01  3.36915095e+00 -5.62306635e+00  8.90048678e-01  3.36915095e+00
 -5.62306635e+00  8.90048678e-01  3.36915095e+00 -5.62306635e+00  8.90048678e-01
  3.36915095e+00 -5.62306635e+00  8.90048678e-01  3.36915095e+00 -5.62306635e+00
  8.90048678e-01  3.36915095e+00 -5.62306635e+00  8.90048678e-01  3.36915095e+00
 -5.62306635e+00  8.90048678e-01  3.36915095e+00 -3.03303396e+00 -2.26981485e-01
  2.70150273e+00 -3.03303396e+00 -2.26981485e-01  2.70150273e+00 -3.03303396e+00
 -2.26981485e-01  2.70150273e+00 -3.03303396e+00 -2.26981485e-01  2.70150273e+00
 -3.03303396e+00 -2.26981485e-01  2.70150273e+00 -3.03303396e+00 -2.26981485e-01
  2.70150273e+00 -3.03303396e+00 -2.26981485e-01  2.70150273e+00 -3.03303396e+00
 -2.26981485e-01  2.70150273e+00 -2.49082463e+00  2.17627387e-01  2.86608300e-02
 -2.49082463e+00  2.17627387e-01  2.86608300e-02 -2.49082463e+00  2.17627387e-01
  2.86608300e-02 -2.49082463e+00  2.17627387e-01  2.86608300e-02 -2.49082463e+00
  2.17627387e-01  2.86608300e-02 -2.49082463e+00  2.17627387e-01  2.86608300e-02
 -2.49082463e+00  2.17627387e-01  2.86608300e-02 -2.49082463e+00  2.17627387e-01
  2.86608300e-02  2.01896659e+00 -4.56442478e-01  6.30858265e-01  2.01896659e+00
 -4.56442478e-01  6.30858265e-01  2.01896659e+00 -4.56442478e-01  6.30858265e-01
  2.01896659e+00 -4.56442478e-01  6.30858265e-01  2.01896659e+00 -4.56442478e-01
  6.30858265e-01  2.01896659e+00 -4.56442478e-01  6.30858265e-01  2.01896659e+00
 -4.56442478e-01  6.30858265e-01  2.01896659e+00 -4.56442478e-01  6.30858265e-01
 -3.54955706e-02  3.90922914e-01 -8.58767596e-01 -3.54955706e-02  3.90922914e-01
 -8.58767596e-01 -3.54955706e-02  3.90922914e-01 -8.58767596e-01 -3.54955706e-02
  3.90922914e-01 -8.58767596e-01 -3.54955706e-02  3.90922914e-01 -8.58767596e-01
 -3.54955706e-02  3.90922914e-01 -8.58767596e-01 -3.54955706e-02  3.90922914e-01
 -8.58767596e-01 -3.54955706e-02  3.90922914e-01 -8.58767596e-01  4.47544785e+00
 -2.58330713e-01 -2.84995820e-01  4.47544785e+00 -2.58330713e-01 -2.84995820e-01
  4.47544785e+00 -2.58330713e-01 -2.84995820e-01  4.47544785e+00 -2.58330713e-01
 -2.84995820e-01  4.47544785e+00 -2.58330713e-01 -2.84995820e-01  4.47544785e+00
 -2.58330713e-01 -2.84995820e-01  4.47544785e+00 -2.58330713e-01 -2.84995820e-01
  4.47544785e+00 -2.58330713e-01 -2.84995820e-01  5.03043977e+00  7.38705476e-01
 -2.65851939e+00  5.03043977e+00  7.38705476e-01 -2.65851939e+00  5.03043977e+00
  7.38705476e-01 -2.65851939e+00  5.03043977e+00  7.38705476e-01 -2.65851939e+00
  5.03043977e+00  7.38705476e-01 -2.65851939e+00  5.03043977e+00  7.38705476e-01
 -2.65851939e+00  5.03043977e+00  7.38705476e-01 -2.65851939e+00  5.03043977e+00
  7.38705476e-01 -2.65851939e+00 -6.91412560e+00 -1.01256818e+00 -6.78726193e-01
 -6.91412560e+00 -1.01256818e+00 -6.78726193e-01 -6.91412560e+00 -1.01256818e+00
 -6.78726193e-01 -6.91412560e+00 -1.01256818e+00 -6.78726193e-01 -6.91412560e+00
 -1.01256818e+00 -6.78726193e-01 -6.91412560e+00 -1.01256818e+00 -6.78726193e-01
 -6.91412560e+00 -1.01256818e+00 -6.78726193e-01 -6.91412560e+00 -1.01256818e+00
 -6.78726193e-01 -4.66032426e+00  5.05476062e-01 -1.66033746e+00 -4.66032426e+00
  5.05476062e-01 -1.66033746e+00 -4.66032426e+00  5.05476062e-01 -1.66033746e+00
 -4.66032426e+00  5.05476062e-01 -1.66033746e+00 -4.66032426e+00  5.05476062e-01
 -1.66033746e+00 -4.66032426e+00  5.05476062e-01 -1.66033746e+00 -4.66032426e+00
  5.05476062e-01 -1.66033746e+00 -4.66032426e+00  5.05476062e-01 -1.66033746e+00
  5.14090300e-01  1.41166130e+00 -3.27072919e+00  5.14090300e-01  1.41166130e+00
 -3.27072919e+00  5.14090300e-01  1.41166130e+00 -3.27072919e+00  5.14090300e-01
  1.41166130e+00 -3.27072919e+00  5.14090300e-01  1.41166130e+00 -3.27072919e+00
  5.14090300e-01  1.41166130e+00 -3.27072919e+00  5.14090300e-01  1.41166130e+00
 -3.27072919e+00  5.14090300e-01  1.41166130e+00 -3.27072919e+00  2.99757354e+00
  1.56291447e+00 -4.12965118e+00  2.99757354e+00  1.56291447e+00 -4.12965118e+00
  2.99757354e+00  1.56291447e+00 -4.12965118e+00  2.99757354e+00  1.56291447e+00
 -4.12965118e+00  2.99757354e+00  1.56291447e+00 -4.12965118e+00  2.99757354e+00
  1.56291447e+00 -4.12965118e+00  2.99757354e+00  1.56291447e+00 -4.12965118e+00
  2.99757354e+00  1.56291447e+00 -4.12965118e+00 -6.03415907e+00  5.29615698e-01
  5.36559418e+00 -6.03415907e+00  5.29615698e-01  5.36559418e+00 -5.52047346e+00
  2.95110352e+00  3.14060933e+00 -5.52047346e+00  2.95110352e+00  3.14060933e+00
  1.71031959e+00 -1.31261798e+00  2.46324699e+00  1.71031959e+00 -1.31261798e+00
  2.46324699e+00 -9.90816375e-01  2.13948179e+00 -4.45444727e+00 -9.90816375e-01
  2.13948179e+00 -4.45444727e+00 -4.16013690e+00 -2.24231093e-01 -3.53042177e+00
 -4.16013690e+00 -2.24231093e-01 -3.53042177e+00 -5.19899789e+00  2.50509946e+00
 -1.89355116e+00 -5.19899789e+00  2.50509946e+00 -1.89355116e+00 -8.48738232e+00
 -8.11844406e-01 -2.01420562e+00 -8.48738232e+00 -8.11844406e-01 -2.01420562e+00
 -6.37010750e+00 -3.02550710e+00 -6.56836651e-01 -6.37010750e+00 -3.02550710e+00
 -6.56836651e-01 -2.97495318e+00 -2.25903918e+00  3.16992735e+00 -2.97495318e+00
 -2.25903918e+00  3.16992735e+00 -1.58961992e+00  7.12789894e-01  3.85369074e+00
 -1.58961992e+00  7.12789894e-01  3.85369074e+00 -8.65428732e+00 -1.47924835e+00
  2.75841271e+00 -8.65428732e+00 -1.47924835e+00  2.75841271e+00  3.36171322e+00
  2.36982972e+00 -5.98385187e+00  3.36171322e+00  2.36982972e+00 -5.98385187e+00
  6.96427251e+00  8.69676604e-01 -3.32224958e+00  6.96427251e+00  8.69676604e-01
 -3.32224958e+00  6.97265303e+00 -1.35034965e+00  1.63822970e+00  6.97265303e+00
 -1.35034965e+00  1.63822970e+00  6.97265303e+00 -1.35034965e+00  1.63822970e+00
  6.97265303e+00 -1.35034965e+00  1.63822970e+00  6.97265303e+00 -1.35034965e+00
  1.63822970e+00  6.97265303e+00 -1.35034965e+00  1.63822970e+00  6.97265303e+00
 -1.35034965e+00  1.63822970e+00  6.97265303e+00 -1.35034965e+00  1.63822970e+00
  6.97265303e+00 -1.35034965e+00  1.63822970e+00  6.97265303e+00 -1.35034965e+00
  1.63822970e+00
Total Energy                               R     -9.585870772726693e+02
Alpha Orbital Energies                     R   N=         277
 -1.01546854e+02 -1.43638017e+01 -1.43364376e+01 -1.02519661e+01 -1.02437180e+01
 -1.02342799e+01 -1.02326020e+01 -1.02269152e+01 -1.02267405e+01 -1.02015967e+01
 -1.01966156e+01 -1.01927760e+01 -1.01920640e+01 -9.46201755e+00 -7.22598085e+00
 -7.21640943e+00 -7.21614131e+00 -9.68616080e-01 -9.11570457e-01 -8.81574650e-01
 -8.27528734e-01 -7.84412428e-01 -7.60695265e-01 -7.35056897e-01 -6.94423486e-01
 -6.70963664e-01 -6.13975927e-01 -5.99922785e-01 -5.62449959e-01 -5.45189095e-01
 -5.21669655e-01 -5.02742457e-01 -4.88700767e-01 -4.77528409e-01 -4.50407086e-01
 -4.43586664e-01 -4.35866113e-01 -4.31296589e-01 -4.20808853e-01 -4.04466520e-01
 -3.90362055e-01 -3.88597319e-01 -3.83656666e-01 -3.76328209e-01 -3.61304020e-01
 -3.51177470e-01 -3.34808671e-01 -3.09930860e-01 -2.88821663e-01 -2.47738233e-01
 -2.33738608e-01 -2.02320471e-01 -1.76560969e-02 -9.31717232e-03 -2.31765529e-03
  5.05548358e-03  1.33821020e-02  1.53324152e-02  1.82232812e-02  2.54138744e-02
  3.78359898e-02  4.19879944e-02  4.65895781e-02  5.32891380e-02  5.45121214e-02
  6.11907653e-02  7.16150444e-02  7.73174303e-02  8.12059526e-02  8.27809360e-02
  8.85870767e-02  9.37176340e-02  1.00769912e-01  1.06810378e-01  1.12348530e-01
  1.13835055e-01  1.23687741e-01  1.32431086e-01  1.35605915e-01  1.40483444e-01
  1.44630745e-01  1.45705312e-01  1.51807382e-01  1.53928763e-01  1.63292126e-01
  1.64880829e-01  1.67066171e-01  1.77404321e-01  1.85761735e-01  1.87736512e-01
  1.88991736e-01  1.95118501e-01  2.01764493e-01  2.02103977e-01  2.06225175e-01
  2.11335741e-01  2.14054659e-01  2.20194056e-01  2.25267528e-01  2.31589302e-01
  2.33990220e-01  2.36998319e-01  2.42617291e-01  2.47094984e-01  2.49945556e-01
  2.50672707e-01  2.57945908e-01  2.62852984e-01  2.65839813e-01  2.72818036e-01
  2.77390026e-01  2.80126906e-01  2.85082326e-01  2.91901290e-01  3.00938850e-01
  3.03437562e-01  3.08854255e-01  3.11428204e-01  3.20263558e-01  3.23386748e-01
  3.29882358e-01  3.41454644e-01  3.50657691e-01  3.64015393e-01  3.72235714e-01
  3.79153195e-01  3.83038521e-01  3.94694198e-01  4.06073941e-01  4.16608595e-01
  4.28645064e-01  4.50689905e-01  5.28638428e-01  5.64445984e-01  6.00200978e-01
  6.27212659e-01  6.35834346e-01  6.44730316e-01  6.59721432e-01  6.70509674e-01
  6.78025699e-01  6.88863927e-01  6.89490440e-01  6.93530636e-01  7.03706571e-01
  7.10384459e-01  7.16811077e-01  7.26677002e-01  7.36006041e-01  7.48134673e-01
  7.53330299e-01  7.60480262e-01  7.74827391e-01  7.80896457e-01  8.03096097e-01
  8.08745242e-01  8.38812716e-01  8.43752014e-01  8.46044911e-01  8.67415709e-01
  8.80466539e-01  8.92014324e-01  9.10240180e-01  9.19365109e-01  9.25790822e-01
  9.42043004e-01  9.48912501e-01  9.55989042e-01  9.68599361e-01  9.76198034e-01
  9.85884995e-01  9.95343050e-01  1.00954599e+00  1.01465912e+00  1.03324194e+00
  1.03784953e+00  1.04692172e+00  1.07629523e+00  1.08251135e+00  1.09910227e+00
  1.10287755e+00  1.11183095e+00  1.12003825e+00  1.12051780e+00  1.13599557e+00
  1.14979273e+00  1.15699136e+00  1.17980346e+00  1.21501543e+00  1.22165012e+00
  1.24698517e+00  1.26746678e+00  1.28544409e+00  1.30356989e+00  1.33419702e+00
  1.35174771e+00  1.39979634e+00  1.41718500e+00  1.42268700e+00  1.44680341e+00
  1.45946197e+00  1.47598466e+00  1.48336286e+00  1.50060165e+00  1.51672666e+00
  1.56714212e+00  1.57223389e+00  1.58363944e+00  1.61731856e+00  1.65891527e+00
  1.74225142e+00  1.77757960e+00  1.81146617e+00  1.81893731e+00  1.84577299e+00
  1.86547605e+00  1.89790994e+00  1.90709897e+00  1.91064126e+00  1.91798221e+00
  1.95275558e+00  1.96933834e+00  1.98530443e+00  1.99863406e+00  2.01264492e+00
  2.04998889e+00  2.07476270e+00  2.09620286e+00  2.10333117e+00  2.12923850e+00
  2.14826688e+00  2.16249255e+00  2.18468670e+00  2.19437852e+00  2.21086741e+00
  2.23778955e+00  2.25371277e+00  2.30094023e+00  2.30620256e+00  2.31764146e+00
  2.33253859e+00  2.36683234e+00  2.37454721e+00  2.44251023e+00  2.49155923e+00
  2.53487749e+00  2.54071267e+00  2.57172382e+00  2.58484346e+00  2.60551257e+00
  2.63026019e+00  2.64378189e+00  2.67346124e+00  2.71866348e+00  2.72820200e+00
  2.76695077e+00  2.78897006e+00  2.79779015e+00  2.83961989e+00  2.86552839e+00
  2.92414856e+00  3.05207457e+00  3.21383472e+00  3.38341838e+00  4.07643826e+00
  4.21240662e+00  4.26670803e+00  4.29062631e+00  4.32445274e+00  4.34171199e+00
  4.39264172e+00  4.42174383e+00  4.43161049e+00  4.47202198e+00  4.47567728e+00
  4.68160824e+00  4.75222185e+00
Alpha MO coefficients                      R   N=       76729
 -1.95477252e-07 -1.25693268e-06 -4.78626108e-07  3.09425750e-07 -3.92536207e-08
  9.14691690e-06  8.12260752e-06 -1.67975411e-06 -3.35309820e-06  2.04815314e-07
 -4.70233689e-07 -2.55547531e-09  3.72269407e-08 -2.23633208e-07 -2.01098360e-08
  5.44889772e-05  1.63096042e-05  9.76635376e-06 -1.36400751e-05  6.87733032e-07
  3.56758462e-06  1.29771434e-07  2.41583500e-07  1.95295737e-07 -2.52884048e-05