Generated by Psi4
     FORCE                           RHF                       TESTBAS
Number of atoms                            I               30
Charge                                     I                0
Multiplicity                               I                1
Number of electrons                        I              104
Number of alpha electrons                  I               52
Number of beta electrons                   I               52
Number of basis functions                  I              298
Number of independent functions            I              298
Atomic numbers                             I   N=          30
           7           6           6           7           6           6
           6           6           6           6           6           6
           1           1           1           1           1           1
           1           1           1           1           1           1
           1           8           6           1           1           1
Nuclear charges                            R   N=          30
  7.00000000e+00  6.00000000e+00  6.00000000e+00  7.00000000e+00  6.00000000e+00
  6.00000000e+00  6.00000000e+00  6.00000000e+00  6.00000000e+00  6.00000000e+00
  6.00000000e+00  6.00000000e+00  1.00000000e+00  1.00000000e+00  1.00000000e+00
  1.00000000e+00  1.00000000e+00  1.00000000e+00  1.00000000e+00  1.00000000e+00
  1.00000000e+00  1.00000000e+00  1.00000000e+00  1.00000000e+00  1.00000000e+00
  8.00000000e+00  6.00000000e+00  1.00000000e+00  1.00000000e+00  1.00000000e+00
Current cartesian coordinates              R   N=          90
 -7.67374025e+00 -1.12098752e+00  2.75182235e+00 -5.62355038e+00 -5.93484739e-02
  4.29691531e+00 -2.99637087e+00 -1.10059980e+00  3.64669028e+00 -2.45940365e+00
 -6.93000908e-01  9.66717041e-01  2.11798259e+00 -9.45828522e-01  1.56592918e+00
 -1.05901217e-02 -1.90695247e-01  1.31085067e-01  4.56448844e+00 -4.71380852e-01
  7.37031119e-01  5.00476365e+00  7.55525816e-01 -1.56725793e+00 -6.86425360e+00
 -1.92652592e+00  2.13838036e-01 -4.62278279e+00 -3.52456406e-01 -7.04972709e-01
  4.66693637e-01  1.05148067e+00 -2.17335083e+00  2.93356557e+00  1.50703386e+00
 -3.01970090e+00 -6.03810797e+00 -4.17351834e-01  6.29358556e+00 -5.58832306e+00
  2.00217266e+00  4.05358707e+00  1.86192678e+00 -1.95880407e+00  3.33037001e+00
 -1.08636717e+00  1.71927162e+00 -3.33230817e+00  6.17556828e+00 -1.07285914e+00
  1.85862199e+00 -4.11157411e+00 -1.00405288e+00 -2.60281803e+00 -5.18766157e+00
  1.65091065e+00 -8.74064286e-01 -8.43897198e+00 -1.69349746e+00 -1.11551839e+00
 -6.29820390e+00 -3.93186360e+00  1.65015494e-01 -2.87940426e+00 -3.12117710e+00
  4.15430827e+00 -1.58485178e+00 -9.98009508e-02  4.78946759e+00 -8.51540339e+00
 -2.58357720e+00  3.66542749e+00  3.18870428e+00  2.47588373e+00 -4.80828624e+00
  7.49671134e+00  1.11916044e+00 -2.21536747e+00  8.02828951e+00  2.35827591e+00
 -4.52985336e+00  7.27363716e+00  1.30007562e+00 -6.14995084e+00  1.00853206e+01
  2.44197542e+00 -4.66794073e+00  7.25943546e+00  4.28750128e+00 -4.55371476e+00
Integer atomic weights                     I   N=          30
          14          12          12          14          12          12
          12          12          12          12          12          12
           1           1           1           1           1           1
           1           1           1           1           1           1
           1          15          12           1           1           1
Real atomic weights                        R   N=          30
  1.40030740e+01  1.20000000e+01  1.20000000e+01  1.40030740e+01  1.20000000e+01
  1.20000000e+01  1.20000000e+01  1.20000000e+01  1.20000000e+01  1.20000000e+01
  1.20000000e+01  1.20000000e+01  1.00782503e+00  1.00782503e+00  1.00782503e+00
  1.00782503e+00  1.00782503e+00  1.00782503e+00  1.00782503e+00  1.00782503e+00
  1.00782503e+00  1.00782503e+00  1.00782503e+00  1.00782503e+00  1.00782503e+00
  1.59949146e+01  1.20000000e+01  1.00782503e+00  1.00782503e+00  1.00782503e+00
Number of primitive shells                 I              302
Number of contracted shells                I              144
Pure/Cartesian d shells                    I                1
Pure/Cartesian f shells                    I                1
Highest angular momentum                   I                2
Largest degree of contraction              I                6
Shell types                                I   N=         144
           0           0           1           0           1           2
           0           1           0           0           1           0
           1           2           0           1           0           0
           1           0           1           2           0           1
           0           0           1           0           1           2
           0           1           0           0           1           0
           1           2           0           1           0           0
           1           0           1           2           0           1
           0           0           1           0           1           2
           0           1           0           0           1           0
           1           2           0           1           0           0
           1           0           1           2           0           1
           0           0           1           0           1           2
           0           1           0           0           1           0
           1           2           0           1           0           0
           1           0           1           2           0           1
           0           0           0           0           0           0
           0           0           0           0           0           0
           0           0           0           0           0           0
           0           0           0           0           0           0
           0           0           0           0           1           0
           1           2           0           1           0           0
           1           0           1           2           0           1
           0           0           0           0           0           0
Number of primitives per shell             I   N=         144
           6           3           3           1           1           1
           1           1           6           3           3           1
           1           1           1           1           6           3
           3           1           1           1           1           1
           6           3           3           1           1           1
           1           1           6           3           3           1
           1           1           1           1           6           3
           3           1           1           1           1           1
           6           3           3           1           1           1
           1           1           6           3           3           1
           1           1           1           1           6           3
           3           1           1           1           1           1
           6           3           3           1           1           1
           1           1           6           3           3           1
           1           1           1           1           6           3
           3           1           1           1           1           1
           3           1           3           1           3           1
           3           1           3           1           3           1
           3           1           3           1           3           1
           3           1           3           1           3           1
           3           1           6           3           3           1
           1           1           1           1           6           3
           3           1           1           1           1           1
           3           1           3           1           3           1
Shell to atom map                          I   N=         144
           1           1           1           1           1           1
           1           1           2           2           2           2
           2           2           2           2           3           3
           3           3           3           3           3           3
           4           4           4           4           4           4
           4           4           5           5           5           5
           5           5           5           5           6           6
           6           6           6           6           6           6
           7           7           7           7           7           7
           7           7           8           8           8           8
           8           8           8           8           9           9
           9           9           9           9           9           9
          10          10          10          10          10          10
          10          10          11          11          11          11
          11          11          11          11          12          12
          12          12          12          12          12          12
          13          13          14          14          15          15
          16          16          17          17          18          18
          19          19          20          20          21          21
          22          22          23          23          24          24
          25          25          26          26          26          26
          26          26          26          26          27          27
          27          27          27          27          27          27
          28          28          29          29          30          30
Primitive exponents                        R   N=         302
  4.17351100e+03  6.27457900e+02  1.42902100e+02  4.02343300e+01  1.28202100e+01
  4.39043700e+00  1.16263580e+01  2.71628000e+00  7.72218000e-01  1.16263580e+01
  2.71628000e+00  7.72218000e-01  2.12031300e-01  2.12031300e-01  8.00000000e-01
  6.39000000e-02  6.39000000e-02  3.04752490e+03  4.57369510e+02  1.03948690e+02
  2.92101550e+01  9.28666300e+00  3.16392700e+00  7.86827240e+00  1.88128850e+00
  5.44249300e-01  7.86827240e+00  1.88128850e+00  5.44249300e-01  1.68714400e-01
  1.68714400e-01  8.00000000e-01  4.38000000e-02  4.38000000e-02  3.04752490e+03
  4.57369510e+02  1.03948690e+02  2.92101550e+01  9.28666300e+00  3.16392700e+00
  7.86827240e+00  1.88128850e+00  5.44249300e-01  7.86827240e+00  1.88128850e+00
  5.44249300e-01  1.68714400e-01  1.68714400e-01  8.00000000e-01  4.38000000e-02
  4.38000000e-02  4.17351100e+03  6.27457900e+02  1.42902100e+02  4.02343300e+01
  1.28202100e+01  4.39043700e+00  1.16263580e+01  2.71628000e+00  7.72218000e-01
  1.16263580e+01  2.71628000e+00  7.72218000e-01  2.12031300e-01  2.12031300e-01
  8.00000000e-01  6.39000000e-02  6.39000000e-02  3.04752490e+03  4.57369510e+02
  1.03948690e+02  2.92101550e+01  9.28666300e+00  3.16392700e+00  7.86827240e+00
  1.88128850e+00  5.44249300e-01  7.86827240e+00  1.88128850e+00  5.44249300e-01
  1.68714400e-01  1.68714400e-01  8.00000000e-01  4.38000000e-02  4.38000000e-02
  3.04752490e+03  4.57369510e+02  1.03948690e+02  2.92101550e+01  9.28666300e+00
  3.16392700e+00  7.86827240e+00  1.88128850e+00  5.44249300e-01  7.86827240e+00
  1.88128850e+00  5.44249300e-01  1.68714400e-01  1.68714400e-01  8.00000000e-01
  4.38000000e-02  4.38000000e-02  3.04752490e+03  4.57369510e+02  1.03948690e+02
  2.92101550e+01  9.28666300e+00  3.16392700e+00  7.86827240e+00  1.88128850e+00
  5.44249300e-01  7.86827240e+00  1.88128850e+00  5.44249300e-01  1.68714400e-01
  1.68714400e-01  8.00000000e-01  4.38000000e-02  4.38000000e-02  3.04752490e+03
  4.57369510e+02  1.03948690e+02  2.92101550e+01  9.28666300e+00  3.16392700e+00
  7.86827240e+00  1.88128850e+00  5.44249300e-01  7.86827240e+00  1.88128850e+00
  5.44249300e-01  1.68714400e-01  1.68714400e-01  8.00000000e-01  4.38000000e-02
  4.38000000e-02  3.04752490e+03  4.57369510e+02  1.03948690e+02  2.92101550e+01
  9.28666300e+00  3.16392700e+00  7.86827240e+00  1.88128850e+00  5.44249300e-01
  7.86827240e+00  1.88128850e+00  5.44249300e-01  1.68714400e-01  1.68714400e-01
  8.00000000e-01  4.38000000e-02  4.38000000e-02  3.04752490e+03  4.57369510e+02
  1.03948690e+02  2.92101550e+01  9.28666300e+00  3.16392700e+00  7.86827240e+00
  1.88128850e+00  5.44249300e-01  7.86827240e+00  1.88128850e+00  5.44249300e-01
  1.68714400e-01  1.68714400e-01  8.00000000e-01  4.38000000e-02  4.38000000e-02
  3.04752490e+03  4.57369510e+02  1.03948690e+02  2.92101550e+01  9.28666300e+00
  3.16392700e+00  7.86827240e+00  1.88128850e+00  5.44249300e-01  7.86827240e+00
  1.88128850e+00  5.44249300e-01  1.68714400e-01  1.68714400e-01  8.00000000e-01
  4.38000000e-02  4.38000000e-02  3.04752490e+03  4.57369510e+02  1.03948690e+02
  2.92101550e+01  9.28666300e+00  3.16392700e+00  7.86827240e+00  1.88128850e+00
  5.44249300e-01  7.86827240e+00  1.88128850e+00  5.44249300e-01  1.68714400e-01
  1.68714400e-01  8.00000000e-01  4.38000000e-02  4.38000000e-02  1.87311370e+01
  2.82539370e+00  6.40121700e-01  1.61277800e-01  1.87311370e+01  2.82539370e+00
  6.40121700e-01  1.61277800e-01  1.87311370e+01  2.82539370e+00  6.40121700e-01
  1.61277800e-01  1.87311370e+01  2.82539370e+00  6.40121700e-01  1.61277800e-01
  1.87311370e+01  2.82539370e+00  6.40121700e-01  1.61277800e-01  1.87311370e+01
  2.82539370e+00  6.40121700e-01  1.61277800e-01  1.87311370e+01  2.82539370e+00
  6.40121700e-01  1.61277800e-01  1.87311370e+01  2.82539370e+00  6.40121700e-01
  1.61277800e-01  1.87311370e+01  2.82539370e+00  6.40121700e-01  1.61277800e-01
  1.87311370e+01  2.82539370e+00  6.40121700e-01  1.61277800e-01  1.87311370e+01
  2.82539370e+00  6.40121700e-01  1.61277800e-01  1.87311370e+01  2.82539370e+00
  6.40121700e-01  1.61277800e-01  1.87311370e+01  2.82539370e+00  6.40121700e-01
  1.61277800e-01  5.48467170e+03  8.25234950e+02  1.88046960e+02  5.29645000e+01
  1.68975700e+01  5.79963530e+00  1.55396160e+01  3.59993360e+00  1.01376180e+00
  1.55396160e+01  3.59993360e+00  1.01376180e+00  2.70005800e-01  2.70005800e-01
  8.00000000e-01  8.45000000e-02  8.45000000e-02  3.04752490e+03  4.57369510e+02
  1.03948690e+02  2.92101550e+01  9.28666300e+00  3.16392700e+00  7.86827240e+00
  1.88128850e+00  5.44249300e-01  7.86827240e+00  1.88128850e+00  5.44249300e-01
  1.68714400e-01  1.68714400e-01  8.00000000e-01  4.38000000e-02  4.38000000e-02
  1.87311370e+01  2.82539370e+00  6.40121700e-01  1.61277800e-01  1.87311370e+01
  2.82539370e+00  6.40121700e-01  1.61277800e-01  1.87311370e+01  2.82539370e+00
  6.40121700e-01  1.61277800e-01
Contraction coefficients                   R   N=         302
  1.83479944e-03  1.39949958e-02  6.85869792e-02  2.32240930e-01  4.69069858e-01
  3.60454891e-01 -1.14961023e-01 -1.69118034e-01  1.14585223e+00  6.75800232e-02
  3.23907111e-01  7.40895255e-01  1.00000000e+00  1.00000000e+00  1.00000000e+00
  1.00000000e+00  1.00000000e+00  1.83470016e-03  1.40373012e-02  6.88426061e-02
  2.32184421e-01  4.67941342e-01  3.62312032e-01 -1.19332409e-01 -1.60854212e-01
  1.14345648e+00  6.89990956e-02  3.16423980e-01  7.44308252e-01  1.00000000e+00
  1.00000000e+00  1.00000000e+00  1.00000000e+00  1.00000000e+00  1.83470016e-03
  1.40373012e-02  6.88426061e-02  2.32184421e-01  4.67941342e-01  3.62312032e-01
 -1.19332409e-01 -1.60854212e-01  1.14345648e+00  6.89990956e-02  3.16423980e-01
  7.44308252e-01  1.00000000e+00  1.00000000e+00  1.00000000e+00  1.00000000e+00
  1.00000000e+00  1.83479944e-03  1.39949958e-02  6.85869792e-02  2.32240930e-01
  4.69069858e-01  3.60454891e-01 -1.14961023e-01 -1.69118034e-01  1.14585223e+00
  6.75800232e-02  3.23907111e-01  7.40895255e-01  1.00000000e+00  1.00000000e+00
  1.00000000e+00  1.00000000e+00  1.00000000e+00  1.83470016e-03  1.40373012e-02
  6.88426061e-02  2.32184421e-01  4.67941342e-01  3.62312032e-01 -1.19332409e-01
 -1.60854212e-01  1.14345648e+00  6.89990956e-02  3.16423980e-01  7.44308252e-01
  1.00000000e+00  1.00000000e+00  1.00000000e+00  1.00000000e+00  1.00000000e+00
  1.83470016e-03  1.40373012e-02  6.88426061e-02  2.32184421e-01  4.67941342e-01
  3.62312032e-01 -1.19332409e-01 -1.60854212e-01  1.14345648e+00  6.89990956e-02
  3.16423980e-01  7.44308252e-01  1.00000000e+00  1.00000000e+00  1.00000000e+00
  1.00000000e+00  1.00000000e+00  1.83470016e-03  1.40373012e-02  6.88426061e-02
  2.32184421e-01  4.67941342e-01  3.62312032e-01 -1.19332409e-01 -1.60854212e-01
  1.14345648e+00  6.89990956e-02  3.16423980e-01  7.44308252e-01  1.00000000e+00
  1.00000000e+00  1.00000000e+00  1.00000000e+00  1.00000000e+00  1.83470016e-03
  1.40373012e-02  6.88426061e-02  2.32184421e-01  4.67941342e-01  3.62312032e-01
 -1.19332409e-01 -1.60854212e-01  1.14345648e+00  6.89990956e-02  3.16423980e-01
  7.44308252e-01  1.00000000e+00  1.00000000e+00  1.00000000e+00  1.00000000e+00
  1.00000000e+00  1.83470016e-03  1.40373012e-02  6.88426061e-02  2.32184421e-01
  4.67941342e-01  3.62312032e-01 -1.19332409e-01 -1.60854212e-01  1.14345648e+00
  6.89990956e-02  3.16423980e-01  7.44308252e-01  1.00000000e+00  1.00000000e+00
  1.00000000e+00  1.00000000e+00  1.00000000e+00  1.83470016e-03  1.40373012e-02
  6.88426061e-02  2.32184421e-01  4.67941342e-01  3.62312032e-01 -1.19332409e-01
 -1.60854212e-01  1.14345648e+00  6.89990956e-02  3.16423980e-01  7.44308252e-01
  1.00000000e+00  1.00000000e+00  1.00000000e+00  1.00000000e+00  1.00000000e+00
  1.83470016e-03  1.40373012e-02  6.88426061e-02  2.32184421e-01  4.67941342e-01
  3.62312032e-01 -1.19332409e-01 -1.60854212e-01  1.14345648e+00  6.89990956e-02
  3.16423980e-01  7.44308252e-01  1.00000000e+00  1.00000000e+00  1.00000000e+00
  1.00000000e+00  1.00000000e+00  1.83470016e-03  1.40373012e-02  6.88426061e-02
  2.32184421e-01  4.67941342e-01  3.62312032e-01 -1.19332409e-01 -1.60854212e-01
  1.14345648e+00  6.89990956e-02  3.16423980e-01  7.44308252e-01  1.00000000e+00
  1.00000000e+00  1.00000000e+00  1.00000000e+00  1.00000000e+00  3.34945995e-02
  2.34726947e-01  8.13757318e-01  1.00000000e+00  3.34945995e-02  2.34726947e-01
  8.13757318e-01  1.00000000e+00  3.34945995e-02  2.34726947e-01  8.13757318e-01
  1.00000000e+00  3.34945995e-02  2.34726947e-01  8.13757318e-01  1.00000000e+00
  3.34945995e-02  2.34726947e-01  8.13757318e-01  1.00000000e+00  3.34945995e-02
  2.34726947e-01  8.13757318e-01  1.00000000e+00  3.34945995e-02  2.34726947e-01
  8.13757318e-01  1.00000000e+00  3.34945995e-02  2.34726947e-01  8.13757318e-01
  1.00000000e+00  3.34945995e-02  2.34726947e-01  8.13757318e-01  1.00000000e+00
  3.34945995e-02  2.34726947e-01  8.13757318e-01  1.00000000e+00  3.34945995e-02
  2.34726947e-01  8.13757318e-01  1.00000000e+00  3.34945995e-02  2.34726947e-01
  8.13757318e-01  1.00000000e+00  3.34945995e-02  2.34726947e-01  8.13757318e-01
  1.00000000e+00  1.83109981e-03  1.39500985e-02  6.84450927e-02  2.32714275e-01
  4.70192950e-01  3.58520862e-01 -1.10777504e-01 -1.48026305e-01  1.13076704e+00
  7.08742995e-02  3.39752798e-01  7.27158595e-01  1.00000000e+00  1.00000000e+00
  1.00000000e+00  1.00000000e+00  1.00000000e+00  1.83470016e-03  1.40373012e-02
  6.88426061e-02  2.32184421e-01  4.67941342e-01  3.62312032e-01 -1.19332409e-01
 -1.60854212e-01  1.14345648e+00  6.89990956e-02  3.16423980e-01  7.44308252e-01
  1.00000000e+00  1.00000000e+00  1.00000000e+00  1.00000000e+00  1.00000000e+00
  3.34945995e-02  2.34726947e-01  8.13757318e-01  1.00000000e+00  3.34945995e-02
  2.34726947e-01  8.13757318e-01  1.00000000e+00  3.34945995e-02  2.34726947e-01
  8.13757318e-01  1.00000000e+00
Coordinates of each shell                  R   N=         432
 -7.67374025e+00 -1.12098752e+00  2.75182235e+00 -7.67374025e+00 -1.12098752e+00
  2.75182235e+00 -7.67374025e+00 -1.12098752e+00  2.75182235e+00 -7.67374025e+00
 -1.12098752e+00  2.75182235e+00 -7.67374025e+00 -1.12098752e+00  2.75182235e+00
 -7.67374025e+00 -1.12098752e+00  2.75182235e+00 -7.67374025e+00 -1.12098752e+00
  2.75182235e+00 -7.67374025e+00 -1.12098752e+00  2.75182235e+00 -5.62355038e+00
 -5.93484739e-02  4.29691531e+00 -5.62355038e+00 -5.93484739e-02  4.29691531e+00
 -5.62355038e+00 -5.93484739e-02  4.29691531e+00 -5.62355038e+00 -5.93484739e-02
  4.29691531e+00 -5.62355038e+00 -5.93484739e-02  4.29691531e+00 -5.62355038e+00
 -5.93484739e-02  4.29691531e+00 -5.62355038e+00 -5.93484739e-02  4.29691531e+00
 -5.62355038e+00 -5.93484739e-02  4.29691531e+00 -2.99637087e+00 -1.10059980e+00
  3.64669028e+00 -2.99637087e+00 -1.10059980e+00  3.64669028e+00 -2.99637087e+00
 -1.10059980e+00  3.64669028e+00 -2.99637087e+00 -1.10059980e+00  3.64669028e+00
 -2.99637087e+00 -1.10059980e+00  3.64669028e+00 -2.99637087e+00 -1.10059980e+00
  3.64669028e+00 -2.99637087e+00 -1.10059980e+00  3.64669028e+00 -2.99637087e+00
 -1.10059980e+00  3.64669028e+00 -2.45940365e+00 -6.93000908e-01  9.66717041e-01
 -2.45940365e+00 -6.93000908e-01  9.66717041e-01 -2.45940365e+00 -6.93000908e-01
  9.66717041e-01 -2.45940365e+00 -6.93000908e-01  9.66717041e-01 -2.45940365e+00
 -6.93000908e-01  9.66717041e-01 -2.45940365e+00 -6.93000908e-01  9.66717041e-01
 -2.45940365e+00 -6.93000908e-01  9.66717041e-01 -2.45940365e+00 -6.93000908e-01
  9.66717041e-01  2.11798259e+00 -9.45828522e-01  1.56592918e+00  2.11798259e+00
 -9.45828522e-01  1.56592918e+00  2.11798259e+00 -9.45828522e-01  1.56592918e+00
  2.11798259e+00 -9.45828522e-01  1.56592918e+00  2.11798259e+00 -9.45828522e-01
  1.56592918e+00  2.11798259e+00 -9.45828522e-01  1.56592918e+00  2.11798259e+00
 -9.45828522e-01  1.56592918e+00  2.11798259e+00 -9.45828522e-01  1.56592918e+00
 -1.05901217e-02 -1.90695247e-01  1.31085067e-01 -1.05901217e-02 -1.90695247e-01
  1.31085067e-01 -1.05901217e-02 -1.90695247e-01  1.31085067e-01 -1.05901217e-02
 -1.90695247e-01  1.31085067e-01 -1.05901217e-02 -1.90695247e-01  1.31085067e-01
 -1.05901217e-02 -1.90695247e-01  1.31085067e-01 -1.05901217e-02 -1.90695247e-01
  1.31085067e-01 -1.05901217e-02 -1.90695247e-01  1.31085067e-01  4.56448844e+00
 -4.71380852e-01  7.37031119e-01  4.56448844e+00 -4.71380852e-01  7.37031119e-01
  4.56448844e+00 -4.71380852e-01  7.37031119e-01  4.56448844e+00 -4.71380852e-01
  7.37031119e-01  4.56448844e+00 -4.71380852e-01  7.37031119e-01  4.56448844e+00
 -4.71380852e-01  7.37031119e-01  4.56448844e+00 -4.71380852e-01  7.37031119e-01
  4.56448844e+00 -4.71380852e-01  7.37031119e-01  5.00476365e+00  7.55525816e-01
 -1.56725793e+00  5.00476365e+00  7.55525816e-01 -1.56725793e+00  5.00476365e+00
  7.55525816e-01 -1.56725793e+00  5.00476365e+00  7.55525816e-01 -1.56725793e+00
  5.00476365e+00  7.55525816e-01 -1.56725793e+00  5.00476365e+00  7.55525816e-01
 -1.56725793e+00  5.00476365e+00  7.55525816e-01 -1.56725793e+00  5.00476365e+00
  7.55525816e-01 -1.56725793e+00 -6.86425360e+00 -1.92652592e+00  2.13838036e-01
 -6.86425360e+00 -1.92652592e+00  2.13838036e-01 -6.86425360e+00 -1.92652592e+00
  2.13838036e-01 -6.86425360e+00 -1.92652592e+00  2.13838036e-01 -6.86425360e+00
 -1.92652592e+00  2.13838036e-01 -6.86425360e+00 -1.92652592e+00  2.13838036e-01
 -6.86425360e+00 -1.92652592e+00  2.13838036e-01 -6.86425360e+00 -1.92652592e+00
  2.13838036e-01 -4.62278279e+00 -3.52456406e-01 -7.04972709e-01 -4.62278279e+00
 -3.52456406e-01 -7.04972709e-01 -4.62278279e+00 -3.52456406e-01 -7.04972709e-01
 -4.62278279e+00 -3.52456406e-01 -7.04972709e-01 -4.62278279e+00 -3.52456406e-01
 -7.04972709e-01 -4.62278279e+00 -3.52456406e-01 -7.04972709e-01 -4.62278279e+00
 -3.52456406e-01 -7.04972709e-01 -4.62278279e+00 -3.52456406e-01 -7.04972709e-01
  4.66693637e-01  1.05148067e+00 -2.17335083e+00  4.66693637e-01  1.05148067e+00
 -2.17335083e+00  4.66693637e-01  1.05148067e+00 -2.17335083e+00  4.66693637e-01
  1.05148067e+00 -2.17335083e+00  4.66693637e-01  1.05148067e+00 -2.17335083e+00
  4.66693637e-01  1.05148067e+00 -2.17335083e+00  4.66693637e-01  1.05148067e+00
 -2.17335083e+00  4.66693637e-01  1.05148067e+00 -2.17335083e+00  2.93356557e+00
  1.50703386e+00 -3.01970090e+00  2.93356557e+00  1.50703386e+00 -3.01970090e+00
  2.93356557e+00  1.50703386e+00 -3.01970090e+00  2.93356557e+00  1.50703386e+00
 -3.01970090e+00  2.93356557e+00  1.50703386e+00 -3.01970090e+00  2.93356557e+00
  1.50703386e+00 -3.01970090e+00  2.93356557e+00  1.50703386e+00 -3.01970090e+00
  2.93356557e+00  1.50703386e+00 -3.01970090e+00 -6.03810797e+00 -4.17351834e-01
  6.29358556e+00 -6.03810797e+00 -4.17351834e-01  6.29358556e+00 -5.58832306e+00
  2.00217266e+00  4.05358707e+00 -5.58832306e+00  2.00217266e+00  4.05358707e+00
  1.86192678e+00 -1.95880407e+00  3.33037001e+00  1.86192678e+00 -1.95880407e+00
  3.33037001e+00 -1.08636717e+00  1.71927162e+00 -3.33230817e+00 -1.08636717e+00
  1.71927162e+00 -3.33230817e+00  6.17556828e+00 -1.07285914e+00  1.85862199e+00
  6.17556828e+00 -1.07285914e+00  1.85862199e+00 -4.11157411e+00 -1.00405288e+00
 -2.60281803e+00 -4.11157411e+00 -1.00405288e+00 -2.60281803e+00 -5.18766157e+00
  1.65091065e+00 -8.74064286e-01 -5.18766157e+00  1.65091065e+00 -8.74064286e-01
 -8.43897198e+00 -1.69349746e+00 -1.11551839e+00 -8.43897198e+00 -1.69349746e+00
 -1.11551839e+00 -6.29820390e+00 -3.93186360e+00  1.65015494e-01 -6.29820390e+00
 -3.93186360e+00  1.65015494e-01 -2.87940426e+00 -3.12117710e+00  4.15430827e+00
 -2.87940426e+00 -3.12117710e+00  4.15430827e+00 -1.58485178e+00 -9.98009508e-02
  4.78946759e+00 -1.58485178e+00 -9.98009508e-02  4.78946759e+00 -8.51540339e+00
 -2.58357720e+00  3.66542749e+00 -8.51540339e+00 -2.58357720e+00  3.66542749e+00
  3.18870428e+00  2.47588373e+00 -4.80828624e+00  3.18870428e+00  2.47588373e+00
 -4.80828624e+00  7.49671134e+00  1.11916044e+00 -2.21536747e+00  7.49671134e+00
  1.11916044e+00 -2.21536747e+00  7.49671134e+00  1.11916044e+00 -2.21536747e+00
  7.49671134e+00  1.11916044e+00 -2.21536747e+00  7.49671134e+00  1.11916044e+00
 -2.21536747e+00  7.49671134e+00  1.11916044e+00 -2.21536747e+00  7.49671134e+00
  1.11916044e+00 -2.21536747e+00  7.49671134e+00  1.11916044e+00 -2.21536747e+00
  8.02828951e+00  2.35827591e+00 -4.52985336e+00  8.02828951e+00  2.35827591e+00
 -4.52985336e+00  8.02828951e+00  2.35827591e+00 -4.52985336e+00  8.02828951e+00
  2.35827591e+00 -4.52985336e+00  8.02828951e+00  2.35827591e+00 -4.52985336e+00
  8.02828951e+00  2.35827591e+00 -4.52985336e+00  8.02828951e+00  2.35827591e+00
 -4.52985336e+00  8.02828951e+00  2.35827591e+00 -4.52985336e+00  7.27363716e+00
  1.30007562e+00 -6.14995084e+00  7.27363716e+00  1.30007562e+00 -6.14995084e+00
  1.00853206e+01  2.44197542e+00 -4.66794073e+00  1.00853206e+01  2.44197542e+00
 -4.66794073e+00  7.25943546e+00  4.28750128e+00 -4.55371476e+00  7.25943546e+00
  4.28750128e+00 -4.55371476e+00
Total Energy                               R     -6.135130175809218e+02
Alpha Orbital Energies                     R   N=         298
 -1.91758503e+01 -1.43482143e+01 -1.43294930e+01 -1.02380659e+01 -1.02369186e+01
 -1.02242748e+01 -1.02239562e+01 -1.02228113e+01 -1.02191781e+01 -1.02188238e+01
 -1.01881165e+01 -1.01856745e+01 -1.01850774e+01 -1.01844710e+01 -1.05764074e+00
 -9.55256194e-01 -9.01335244e-01 -8.39260606e-01 -7.75067872e-01 -7.55025190e-01
 -7.43683676e-01 -7.07751795e-01 -6.68845654e-01 -6.61218826e-01 -6.04879961e-01
 -5.91526324e-01 -5.54001012e-01 -5.42147128e-01 -5.23319414e-01 -5.08732192e-01
 -4.86942311e-01 -4.73593014e-01 -4.64097467e-01 -4.51088982e-01 -4.48057896e-01
 -4.27951180e-01 -4.21915000e-01 -4.16296536e-01 -4.10394159e-01 -3.96715185e-01
 -3.90076525e-01 -3.78919153e-01 -3.76488041e-01 -3.70618173e-01 -3.52830857e-01
 -3.48285769e-01 -3.22986810e-01 -3.22598113e-01 -2.58535317e-01 -2.48700061e-01
 -2.26604545e-01 -1.79386131e-01 -8.12275137e-03 -4.02494546e-03  6.52825995e-03
  1.54544567e-02  1.68268250e-02  2.18811049e-02  2.41415028e-02  3.30510981e-02
  3.86774748e-02  4.45463392e-02  4.86892758e-02  5.14376348e-02  5.55807835e-02
  6.31282121e-02  6.71130871e-02  7.15234216e-02  7.67404727e-02  8.53356366e-02
  9.00058053e-02  9.27783169e-02  1.00512242e-01  1.12997412e-01  1.16308143e-01
  1.18259897e-01  1.18830017e-01  1.25687624e-01  1.32110763e-01  1.44350515e-01
  1.47676163e-01  1.48247652e-01  1.54719771e-01  1.59353296e-01  1.61229513e-01
  1.64800387e-01  1.69304342e-01  1.74376259e-01  1.77077789e-01  1.83447136e-01
  1.86212536e-01  1.97549335e-01  2.01655942e-01  2.03131980e-01  2.07770774e-01
  2.13347376e-01  2.14171372e-01  2.19265918e-01  2.22314374e-01  2.27399974e-01
  2.29463310e-01  2.33795961e-01  2.41644143e-01  2.46499171e-01  2.52105148e-01
  2.52563441e-01  2.57194007e-01  2.57690526e-01  2.63564712e-01  2.68261519e-01
  2.72175015e-01  2.78314111e-01  2.80113041e-01  2.82176855e-01  2.87260253e-01
  2.89716511e-01  2.95373713e-01  3.06541488e-01  3.11531807e-01  3.13012044e-01
  3.17252049e-01  3.22226712e-01  3.24779930e-01  3.32165558e-01  3.39476688e-01
  3.48053903e-01  3.51391226e-01  3.62283039e-01  3.67423090e-01  3.72285762e-01
  3.81101627e-01  3.93700722e-01  3.97806332e-01  4.05344059e-01  4.13470295e-01
  4.21361077e-01  4.31808387e-01  4.46450213e-01  4.69022057e-01  4.80992054e-01
  5.75330615e-01  6.19855931e-01  6.40434915e-01  6.59329161e-01  6.74866273e-01
  6.78860115e-01  6.91341693e-01  6.94735769e-01  6.98720022e-01  7.07136483e-01
  7.11484350e-01  7.17409502e-01  7.29856988e-01  7.36393093e-01  7.47569667e-01
  7.58701230e-01  7.71740487e-01  7.75264249e-01  7.81150880e-01  8.00886747e-01
  8.06841997e-01  8.34708423e-01  8.44316278e-01  8.58845100e-01  8.60458068e-01
  8.83586989e-01  9.06279768e-01  9.21258655e-01  9.23874735e-01  9.30068895e-01
  9.43026722e-01  9.54395698e-01  9.59863644e-01  9.69223309e-01  9.87970473e-01
  1.00430780e+00  1.00465105e+00  1.02157610e+00  1.03333231e+00  1.03957060e+00
  1.04516691e+00  1.06532083e+00  1.08098670e+00  1.08529490e+00  1.09333245e+00