Generated by Psi4
     FORCE                           RHF                       TESTBAS
Number of atoms                            I               27
Charge                                     I                0
Multiplicity                               I                1
Number of electrons                        I              110
Number of alpha electrons                  I               55
Number of beta electrons                   I               55
Number of basis functions                  I              309
Number of independent functions            I              309
Atomic numbers                             I   N=          27
           8           6           6           6           7           6
           7           6           8           8           1           1
           6           6           1           1           1           6
           6           1           1           6           1           1
           1           1           1
Nuclear charges                            R   N=          27
  8.00000000e+00  6.00000000e+00  6.00000000e+00  6.00000000e+00  7.00000000e+00
  6.00000000e+00  7.00000000e+00  6.00000000e+00  8.00000000e+00  8.00000000e+00
  1.00000000e+00  1.00000000e+00  6.00000000e+00  6.00000000e+00  1.00000000e+00
  1.00000000e+00  1.00000000e+00  6.00000000e+00  6.00000000e+00  1.00000000e+00
  1.00000000e+00  6.00000000e+00  1.00000000e+00  1.00000000e+00  1.00000000e+00
  1.00000000e+00  1.00000000e+00
Current cartesian coordinates              R   N=          81
  2.62732136e+00 -2.81548844e+00  1.72528319e+00 -1.82452709e+00 -2.52003343e+00
 -1.49971959e+00 -8.89006599e-01 -3.16516677e-01  2.10746994e-01  1.86883379e+00
 -7.84400276e-01  9.51664764e-01  3.51449244e+00  1.26051168e+00  8.19725268e-01
  3.05698806e+00  3.62402721e+00 -2.21466093e-01  6.13307177e-01  3.95743489e+00
 -1.12332224e+00 -1.33962804e+00  2.20554812e+00 -1.14322106e+00  4.66024711e+00
  5.26665528e+00 -3.40960689e-01 -3.34996440e+00  2.72715514e+00 -2.13766706e+00
  2.63692411e-01  5.65197708e+00 -1.95545480e+00  5.32104335e+00  9.46479735e-01
  1.38858292e+00 -5.76808400e-01 -2.59661257e+00 -4.05997975e+00  1.07175746e+00
 -4.36391141e+00 -4.79636809e+00 -1.10011578e+00 -1.09780474e+00 -5.37486627e+00
  1.63978478e+00 -5.89816094e+00 -3.55043461e+00  1.90512836e+00 -4.33762750e+00
 -6.67413899e+00 -2.51956655e+00 -1.64321340e-01  2.71092508e+00 -2.69265742e+00
 -2.57289021e+00  4.21477844e+00 -4.41241837e+00  4.46061236e-01  2.13894473e+00
 -1.72611263e+00  1.34374300e+00  3.90241419e+00 -4.87615445e+00 -3.71415501e+00
  4.77189461e+00 -9.24729300e-01 -3.37081816e+00  4.89823983e+00 -6.68475986e+00
 -2.98322255e+00  4.11748144e+00 -4.93106522e+00 -5.41922720e+00  5.91614119e+00
 -3.87082138e+00 -2.28695890e+00 -1.71849014e+00 -1.48864889e+00 -4.28278197e+00
 -4.78929766e-01
Integer atomic weights                     I   N=          27
          15          12          12          12          14          12
          14          12          15          15           1           1
          12          12           1           1           1          12
          12           1           1          12           1           1
           1           1           1
Real atomic weights                        R   N=          27
  1.59949146e+01  1.20000000e+01  1.20000000e+01  1.20000000e+01  1.40030740e+01
  1.20000000e+01  1.40030740e+01  1.20000000e+01  1.59949146e+01  1.59949146e+01
  1.00782503e+00  1.00782503e+00  1.20000000e+01  1.20000000e+01  1.00782503e+00
  1.00782503e+00  1.00782503e+00  1.20000000e+01  1.20000000e+01  1.00782503e+00
  1.00782503e+00  1.20000000e+01  1.00782503e+00  1.00782503e+00  1.00782503e+00
  1.00782503e+00  1.00782503e+00
Number of primitive shells                 I              303
Number of contracted shells                I              144
Pure/Cartesian d shells                    I                1
Pure/Cartesian f shells                    I                1
Highest angular momentum                   I                2
Largest degree of contraction              I                6
Shell types                                I   N=         144
           0           0           1           0           1           2
           0           1           0           0           1           0
           1           2           0           1           0           0
           1           0           1           2           0           1
           0           0           1           0           1           2
           0           1           0           0           1           0
           1           2           0           1           0           0
           1           0           1           2           0           1
           0           0           1           0           1           2
           0           1           0           0           1           0
           1           2           0           1           0           0
           1           0           1           2           0           1
           0           0           1           0           1           2
           0           1           0           0           0           0
           0           0           1           0           1           2
           0           1           0           0           1           0
           1           2           0           1           0           0
           0           0           0           0           0           0
           1           0           1           2           0           1
           0           0           1           0           1           2
           0           1           0           0           0           0
           0           0           1           0           1           2
           0           1           0           0           0           0
           0           0           0           0           0           0
Number of primitives per shell             I   N=         144
           6           3           3           1           1           1
           1           1           6           3           3           1
           1           1           1           1           6           3
           3           1           1           1           1           1
           6           3           3           1           1           1
           1           1           6           3           3           1
           1           1           1           1           6           3
           3           1           1           1           1           1
           6           3           3           1           1           1
           1           1           6           3           3           1
           1           1           1           1           6           3
           3           1           1           1           1           1
           6           3           3           1           1           1
           1           1           3           1           3           1
           6           3           3           1           1           1
           1           1           6           3           3           1
           1           1           1           1           3           1
           3           1           3           1           6           3
           3           1           1           1           1           1
           6           3           3           1           1           1
           1           1           3           1           3           1
           6           3           3           1           1           1
           1           1           3           1           3           1
           3           1           3           1           3           1
Shell to atom map                          I   N=         144
           1           1           1           1           1           1
           1           1           2           2           2           2
           2           2           2           2           3           3
           3           3           3           3           3           3
           4           4           4           4           4           4
           4           4           5           5           5           5
           5           5           5           5           6           6
           6           6           6           6           6           6
           7           7           7           7           7           7
           7           7           8           8           8           8
           8           8           8           8           9           9
           9           9           9           9           9           9
          10          10          10          10          10          10
          10          10          11          11          12          12
          13          13          13          13          13          13
          13          13          14          14          14          14
          14          14          14          14          15          15
          16          16          17          17          18          18
          18          18          18          18          18          18
          19          19          19          19          19          19
          19          19          20          20          21          21
          22          22          22          22          22          22
          22          22          23          23          24          24
          25          25          26          26          27          27
Primitive exponents                        R   N=         303
  5.48467170e+03  8.25234950e+02  1.88046960e+02  5.29645000e+01  1.68975700e+01
  5.79963530e+00  1.55396160e+01  3.59993360e+00  1.01376180e+00  1.55396160e+01
  3.59993360e+00  1.01376180e+00  2.70005800e-01  2.70005800e-01  8.00000000e-01
  8.45000000e-02  8.45000000e-02  3.04752490e+03  4.57369510e+02  1.03948690e+02
  2.92101550e+01  9.28666300e+00  3.16392700e+00  7.86827240e+00  1.88128850e+00
  5.44249300e-01  7.86827240e+00  1.88128850e+00  5.44249300e-01  1.68714400e-01
  1.68714400e-01  8.00000000e-01  4.38000000e-02  4.38000000e-02  3.04752490e+03
  4.57369510e+02  1.03948690e+02  2.92101550e+01  9.28666300e+00  3.16392700e+00
  7.86827240e+00  1.88128850e+00  5.44249300e-01  7.86827240e+00  1.88128850e+00
  5.44249300e-01  1.68714400e-01  1.68714400e-01  8.00000000e-01  4.38000000e-02
  4.38000000e-02  3.04752490e+03  4.57369510e+02  1.03948690e+02  2.92101550e+01
  9.28666300e+00  3.16392700e+00  7.86827240e+00  1.88128850e+00  5.44249300e-01
  7.86827240e+00  1.88128850e+00  5.44249300e-01  1.68714400e-01  1.68714400e-01
  8.00000000e-01  4.38000000e-02  4.38000000e-02  4.17351100e+03  6.27457900e+02
  1.42902100e+02  4.02343300e+01  1.28202100e+01  4.39043700e+00  1.16263580e+01
  2.71628000e+00  7.72218000e-01  1.16263580e+01  2.71628000e+00  7.72218000e-01
  2.12031300e-01  2.12031300e-01  8.00000000e-01  6.39000000e-02  6.39000000e-02
  3.04752490e+03  4.57369510e+02  1.03948690e+02  2.92101550e+01  9.28666300e+00
  3.16392700e+00  7.86827240e+00  1.88128850e+00  5.44249300e-01  7.86827240e+00
  1.88128850e+00  5.44249300e-01  1.68714400e-01  1.68714400e-01  8.00000000e-01
  4.38000000e-02  4.38000000e-02  4.17351100e+03  6.27457900e+02  1.42902100e+02
  4.02343300e+01  1.28202100e+01  4.39043700e+00  1.16263580e+01  2.71628000e+00
  7.72218000e-01  1.16263580e+01  2.71628000e+00  7.72218000e-01  2.12031300e-01
  2.12031300e-01  8.00000000e-01  6.39000000e-02  6.39000000e-02  3.04752490e+03
  4.57369510e+02  1.03948690e+02  2.92101550e+01  9.28666300e+00  3.16392700e+00
  7.86827240e+00  1.88128850e+00  5.44249300e-01  7.86827240e+00  1.88128850e+00
  5.44249300e-01  1.68714400e-01  1.68714400e-01  8.00000000e-01  4.38000000e-02
  4.38000000e-02  5.48467170e+03  8.25234950e+02  1.88046960e+02  5.29645000e+01
  1.68975700e+01  5.79963530e+00  1.55396160e+01  3.59993360e+00  1.01376180e+00
  1.55396160e+01  3.59993360e+00  1.01376180e+00  2.70005800e-01  2.70005800e-01
  8.00000000e-01  8.45000000e-02  8.45000000e-02  5.48467170e+03  8.25234950e+02
  1.88046960e+02  5.29645000e+01  1.68975700e+01  5.79963530e+00  1.55396160e+01
  3.59993360e+00  1.01376180e+00  1.55396160e+01  3.59993360e+00  1.01376180e+00
  2.70005800e-01  2.70005800e-01  8.00000000e-01  8.45000000e-02  8.45000000e-02
  1.87311370e+01  2.82539370e+00  6.40121700e-01  1.61277800e-01  1.87311370e+01
  2.82539370e+00  6.40121700e-01  1.61277800e-01  3.04752490e+03  4.57369510e+02
  1.03948690e+02  2.92101550e+01  9.28666300e+00  3.16392700e+00  7.86827240e+00
  1.88128850e+00  5.44249300e-01  7.86827240e+00  1.88128850e+00  5.44249300e-01
  1.68714400e-01  1.68714400e-01  8.00000000e-01  4.38000000e-02  4.38000000e-02
  3.04752490e+03  4.57369510e+02  1.03948690e+02  2.92101550e+01  9.28666300e+00
  3.16392700e+00  7.86827240e+00  1.88128850e+00  5.44249300e-01  7.86827240e+00
  1.88128850e+00  5.44249300e-01  1.68714400e-01  1.68714400e-01  8.00000000e-01
  4.38000000e-02  4.38000000e-02  1.87311370e+01  2.82539370e+00  6.40121700e-01
  1.61277800e-01  1.87311370e+01  2.82539370e+00  6.40121700e-01  1.61277800e-01
  1.87311370e+01  2.82539370e+00  6.40121700e-01  1.61277800e-01  3.04752490e+03
  4.57369510e+02  1.03948690e+02  2.92101550e+01  9.28666300e+00  3.16392700e+00
  7.86827240e+00  1.88128850e+00  5.44249300e-01  7.86827240e+00  1.88128850e+00
  5.44249300e-01  1.68714400e-01  1.68714400e-01  8.00000000e-01  4.38000000e-02
  4.38000000e-02  3.04752490e+03  4.57369510e+02  1.03948690e+02  2.92101550e+01
  9.28666300e+00  3.16392700e+00  7.86827240e+00  1.88128850e+00  5.44249300e-01
  7.86827240e+00  1.88128850e+00  5.44249300e-01  1.68714400e-01  1.68714400e-01
  8.00000000e-01  4.38000000e-02  4.38000000e-02  1.87311370e+01  2.82539370e+00
  6.40121700e-01  1.61277800e-01  1.87311370e+01  2.82539370e+00  6.40121700e-01
  1.61277800e-01  3.04752490e+03  4.57369510e+02  1.03948690e+02  2.92101550e+01
  9.28666300e+00  3.16392700e+00  7.86827240e+00  1.88128850e+00  5.44249300e-01
  7.86827240e+00  1.88128850e+00  5.44249300e-01  1.68714400e-01  1.68714400e-01
  8.00000000e-01  4.38000000e-02  4.38000000e-02  1.87311370e+01  2.82539370e+00
  6.40121700e-01  1.61277800e-01  1.87311370e+01  2.82539370e+00  6.40121700e-01
  1.61277800e-01  1.87311370e+01  2.82539370e+00  6.40121700e-01  1.61277800e-01
  1.87311370e+01  2.82539370e+00  6.40121700e-01  1.61277800e-01  1.87311370e+01
  2.82539370e+00  6.40121700e-01  1.61277800e-01
Contraction coefficients                   R   N=         303
  1.83109981e-03  1.39500985e-02  6.84450927e-02  2.32714275e-01  4.70192950e-01
  3.58520862e-01 -1.10777504e-01 -1.48026305e-01  1.13076704e+00  7.08742995e-02
  3.39752798e-01  7.27158595e-01  1.00000000e+00  1.00000000e+00  1.00000000e+00
  1.00000000e+00  1.00000000e+00  1.83470016e-03  1.40373012e-02  6.88426061e-02
  2.32184421e-01  4.67941342e-01  3.62312032e-01 -1.19332409e-01 -1.60854212e-01
  1.14345648e+00  6.89990956e-02  3.16423980e-01  7.44308252e-01  1.00000000e+00
  1.00000000e+00  1.00000000e+00  1.00000000e+00  1.00000000e+00  1.83470016e-03
  1.40373012e-02  6.88426061e-02  2.32184421e-01  4.67941342e-01  3.62312032e-01
 -1.19332409e-01 -1.60854212e-01  1.14345648e+00  6.89990956e-02  3.16423980e-01
  7.44308252e-01  1.00000000e+00  1.00000000e+00  1.00000000e+00  1.00000000e+00
  1.00000000e+00  1.83470016e-03  1.40373012e-02  6.88426061e-02  2.32184421e-01
  4.67941342e-01  3.62312032e-01 -1.19332409e-01 -1.60854212e-01  1.14345648e+00
  6.89990956e-02  3.16423980e-01  7.44308252e-01  1.00000000e+00  1.00000000e+00
  1.00000000e+00  1.00000000e+00  1.00000000e+00  1.83479944e-03  1.39949958e-02
  6.85869792e-02  2.32240930e-01  4.69069858e-01  3.60454891e-01 -1.14961023e-01
 -1.69118034e-01  1.14585223e+00  6.75800232e-02  3.23907111e-01  7.40895255e-01
  1.00000000e+00  1.00000000e+00  1.00000000e+00  1.00000000e+00  1.00000000e+00
  1.83470016e-03  1.40373012e-02  6.88426061e-02  2.32184421e-01  4.67941342e-01
  3.62312032e-01 -1.19332409e-01 -1.60854212e-01  1.14345648e+00  6.89990956e-02
  3.16423980e-01  7.44308252e-01  1.00000000e+00  1.00000000e+00  1.00000000e+00
  1.00000000e+00  1.00000000e+00  1.83479944e-03  1.39949958e-02  6.85869792e-02
  2.32240930e-01  4.69069858e-01  3.60454891e-01 -1.14961023e-01 -1.69118034e-01
  1.14585223e+00  6.75800232e-02  3.23907111e-01  7.40895255e-01  1.00000000e+00
  1.00000000e+00  1.00000000e+00  1.00000000e+00  1.00000000e+00  1.83470016e-03
  1.40373012e-02  6.88426061e-02  2.32184421e-01  4.67941342e-01  3.62312032e-01
 -1.19332409e-01 -1.60854212e-01  1.14345648e+00  6.89990956e-02  3.16423980e-01
  7.44308252e-01  1.00000000e+00  1.00000000e+00  1.00000000e+00  1.00000000e+00
  1.00000000e+00  1.83109981e-03  1.39500985e-02  6.84450927e-02  2.32714275e-01
  4.70192950e-01  3.58520862e-01 -1.10777504e-01 -1.48026305e-01  1.13076704e+00
  7.08742995e-02  3.39752798e-01  7.27158595e-01  1.00000000e+00  1.00000000e+00
  1.00000000e+00  1.00000000e+00  1.00000000e+00  1.83109981e-03  1.39500985e-02
  6.84450927e-02  2.32714275e-01  4.70192950e-01  3.58520862e-01 -1.10777504e-01
 -1.48026305e-01  1.13076704e+00  7.08742995e-02  3.39752798e-01  7.27158595e-01
  1.00000000e+00  1.00000000e+00  1.00000000e+00  1.00000000e+00  1.00000000e+00
  3.34945995e-02  2.34726947e-01  8.13757318e-01  1.00000000e+00  3.34945995e-02
  2.34726947e-01  8.13757318e-01  1.00000000e+00  1.83470016e-03  1.40373012e-02
  6.88426061e-02  2.32184421e-01  4.67941342e-01  3.62312032e-01 -1.19332409e-01
 -1.60854212e-01  1.14345648e+00  6.89990956e-02  3.16423980e-01  7.44308252e-01
  1.00000000e+00  1.00000000e+00  1.00000000e+00  1.00000000e+00  1.00000000e+00
  1.83470016e-03  1.40373012e-02  6.88426061e-02  2.32184421e-01  4.67941342e-01
  3.62312032e-01 -1.19332409e-01 -1.60854212e-01  1.14345648e+00  6.89990956e-02
  3.16423980e-01  7.44308252e-01  1.00000000e+00  1.00000000e+00  1.00000000e+00
  1.00000000e+00  1.00000000e+00  3.34945995e-02  2.34726947e-01  8.13757318e-01
  1.00000000e+00  3.34945995e-02  2.34726947e-01  8.13757318e-01  1.00000000e+00
  3.34945995e-02  2.34726947e-01  8.13757318e-01  1.00000000e+00  1.83470016e-03
  1.40373012e-02  6.88426061e-02  2.32184421e-01  4.67941342e-01  3.62312032e-01
 -1.19332409e-01 -1.60854212e-01  1.14345648e+00  6.89990956e-02  3.16423980e-01
  7.44308252e-01  1.00000000e+00  1.00000000e+00  1.00000000e+00  1.00000000e+00
  1.00000000e+00  1.83470016e-03  1.40373012e-02  6.88426061e-02  2.32184421e-01
  4.67941342e-01  3.62312032e-01 -1.19332409e-01 -1.60854212e-01  1.14345648e+00
  6.89990956e-02  3.16423980e-01  7.44308252e-01  1.00000000e+00  1.00000000e+00
  1.00000000e+00  1.00000000e+00  1.00000000e+00  3.34945995e-02  2.34726947e-01
  8.13757318e-01  1.00000000e+00  3.34945995e-02  2.34726947e-01  8.13757318e-01
  1.00000000e+00  1.83470016e-03  1.40373012e-02  6.88426061e-02  2.32184421e-01
  4.67941342e-01  3.62312032e-01 -1.19332409e-01 -1.60854212e-01  1.14345648e+00
  6.89990956e-02  3.16423980e-01  7.44308252e-01  1.00000000e+00  1.00000000e+00
  1.00000000e+00  1.00000000e+00  1.00000000e+00  3.34945995e-02  2.34726947e-01
  8.13757318e-01  1.00000000e+00  3.34945995e-02  2.34726947e-01  8.13757318e-01
  1.00000000e+00  3.34945995e-02  2.34726947e-01  8.13757318e-01  1.00000000e+00
  3.34945995e-02  2.34726947e-01  8.13757318e-01  1.00000000e+00  3.34945995e-02
  2.34726947e-01  8.13757318e-01  1.00000000e+00
Coordinates of each shell                  R   N=         432
  2.62732136e+00 -2.81548844e+00  1.72528319e+00  2.62732136e+00 -2.81548844e+00
  1.72528319e+00  2.62732136e+00 -2.81548844e+00  1.72528319e+00  2.62732136e+00
 -2.81548844e+00  1.72528319e+00  2.62732136e+00 -2.81548844e+00  1.72528319e+00
  2.62732136e+00 -2.81548844e+00  1.72528319e+00  2.62732136e+00 -2.81548844e+00
  1.72528319e+00  2.62732136e+00 -2.81548844e+00  1.72528319e+00 -1.82452709e+00
 -2.52003343e+00 -1.49971959e+00 -1.82452709e+00 -2.52003343e+00 -1.49971959e+00
 -1.82452709e+00 -2.52003343e+00 -1.49971959e+00 -1.82452709e+00 -2.52003343e+00
 -1.49971959e+00 -1.82452709e+00 -2.52003343e+00 -1.49971959e+00 -1.82452709e+00
 -2.52003343e+00 -1.49971959e+00 -1.82452709e+00 -2.52003343e+00 -1.49971959e+00
 -1.82452709e+00 -2.52003343e+00 -1.49971959e+00 -8.89006599e-01 -3.16516677e-01
  2.10746994e-01 -8.89006599e-01 -3.16516677e-01  2.10746994e-01 -8.89006599e-01
 -3.16516677e-01  2.10746994e-01 -8.89006599e-01 -3.16516677e-01  2.10746994e-01
 -8.89006599e-01 -3.16516677e-01  2.10746994e-01 -8.89006599e-01 -3.16516677e-01
  2.10746994e-01 -8.89006599e-01 -3.16516677e-01  2.10746994e-01 -8.89006599e-01
 -3.16516677e-01  2.10746994e-01  1.86883379e+00 -7.84400276e-01  9.51664764e-01
  1.86883379e+00 -7.84400276e-01  9.51664764e-01  1.86883379e+00 -7.84400276e-01
  9.51664764e-01  1.86883379e+00 -7.84400276e-01  9.51664764e-01  1.86883379e+00
 -7.84400276e-01  9.51664764e-01  1.86883379e+00 -7.84400276e-01  9.51664764e-01
  1.86883379e+00 -7.84400276e-01  9.51664764e-01  1.86883379e+00 -7.84400276e-01
  9.51664764e-01  3.51449244e+00  1.26051168e+00  8.19725268e-01  3.51449244e+00
  1.26051168e+00  8.19725268e-01  3.51449244e+00  1.26051168e+00  8.19725268e-01
  3.51449244e+00  1.26051168e+00  8.19725268e-01  3.51449244e+00  1.26051168e+00
  8.19725268e-01  3.51449244e+00  1.26051168e+00  8.19725268e-01  3.51449244e+00
  1.26051168e+00  8.19725268e-01  3.51449244e+00  1.26051168e+00  8.19725268e-01
  3.05698806e+00  3.62402721e+00 -2.21466093e-01  3.05698806e+00  3.62402721e+00
 -2.21466093e-01  3.05698806e+00  3.62402721e+00 -2.21466093e-01  3.05698806e+00
  3.62402721e+00 -2.21466093e-01  3.05698806e+00  3.62402721e+00 -2.21466093e-01
  3.05698806e+00  3.62402721e+00 -2.21466093e-01  3.05698806e+00  3.62402721e+00
 -2.21466093e-01  3.05698806e+00  3.62402721e+00 -2.21466093e-01  6.13307177e-01
  3.95743489e+00 -1.12332224e+00  6.13307177e-01  3.95743489e+00 -1.12332224e+00
  6.13307177e-01  3.95743489e+00 -1.12332224e+00  6.13307177e-01  3.95743489e+00
 -1.12332224e+00  6.13307177e-01  3.95743489e+00 -1.12332224e+00  6.13307177e-01
  3.95743489e+00 -1.12332224e+00  6.13307177e-01  3.95743489e+00 -1.12332224e+00
  6.13307177e-01  3.95743489e+00 -1.12332224e+00 -1.33962804e+00  2.20554812e+00
 -1.14322106e+00 -1.33962804e+00  2.20554812e+00 -1.14322106e+00 -1.33962804e+00
  2.20554812e+00 -1.14322106e+00 -1.33962804e+00  2.20554812e+00 -1.14322106e+00
 -1.33962804e+00  2.20554812e+00 -1.14322106e+00 -1.33962804e+00  2.20554812e+00
 -1.14322106e+00 -1.33962804e+00  2.20554812e+00 -1.14322106e+00 -1.33962804e+00
  2.20554812e+00 -1.14322106e+00  4.66024711e+00  5.26665528e+00 -3.40960689e-01
  4.66024711e+00  5.26665528e+00 -3.40960689e-01  4.66024711e+00  5.26665528e+00
 -3.40960689e-01  4.66024711e+00  5.26665528e+00 -3.40960689e-01  4.66024711e+00
  5.26665528e+00 -3.40960689e-01  4.66024711e+00  5.26665528e+00 -3.40960689e-01
  4.66024711e+00  5.26665528e+00 -3.40960689e-01  4.66024711e+00  5.26665528e+00
 -3.40960689e-01 -3.34996440e+00  2.72715514e+00 -2.13766706e+00 -3.34996440e+00
  2.72715514e+00 -2.13766706e+00 -3.34996440e+00  2.72715514e+00 -2.13766706e+00
 -3.34996440e+00  2.72715514e+00 -2.13766706e+00 -3.34996440e+00  2.72715514e+00
 -2.13766706e+00 -3.34996440e+00  2.72715514e+00 -2.13766706e+00 -3.34996440e+00
  2.72715514e+00 -2.13766706e+00 -3.34996440e+00  2.72715514e+00 -2.13766706e+00
  2.63692411e-01  5.65197708e+00 -1.95545480e+00  2.63692411e-01  5.65197708e+00
 -1.95545480e+00  5.32104335e+00  9.46479735e-01  1.38858292e+00  5.32104335e+00
  9.46479735e-01  1.38858292e+00 -5.76808400e-01 -2.59661257e+00 -4.05997975e+00
 -5.76808400e-01 -2.59661257e+00 -4.05997975e+00 -5.76808400e-01 -2.59661257e+00
 -4.05997975e+00 -5.76808400e-01 -2.59661257e+00 -4.05997975e+00 -5.76808400e-01
 -2.59661257e+00 -4.05997975e+00 -5.76808400e-01 -2.59661257e+00 -4.05997975e+00
 -5.76808400e-01 -2.59661257e+00 -4.05997975e+00 -5.76808400e-01 -2.59661257e+00
 -4.05997975e+00  1.07175746e+00 -4.36391141e+00 -4.79636809e+00  1.07175746e+00
 -4.36391141e+00 -4.79636809e+00  1.07175746e+00 -4.36391141e+00 -4.79636809e+00
  1.07175746e+00 -4.36391141e+00 -4.79636809e+00  1.07175746e+00 -4.36391141e+00
 -4.79636809e+00  1.07175746e+00 -4.36391141e+00 -4.79636809e+00  1.07175746e+00
 -4.36391141e+00 -4.79636809e+00  1.07175746e+00 -4.36391141e+00 -4.79636809e+00
 -1.10011578e+00 -1.09780474e+00 -5.37486627e+00 -1.10011578e+00 -1.09780474e+00
 -5.37486627e+00  1.63978478e+00 -5.89816094e+00 -3.55043461e+00  1.63978478e+00
 -5.89816094e+00 -3.55043461e+00  1.90512836e+00 -4.33762750e+00 -6.67413899e+00
  1.90512836e+00 -4.33762750e+00 -6.67413899e+00 -2.51956655e+00 -1.64321340e-01
  2.71092508e+00 -2.51956655e+00 -1.64321340e-01  2.71092508e+00 -2.51956655e+00
 -1.64321340e-01  2.71092508e+00 -2.51956655e+00 -1.64321340e-01  2.71092508e+00
 -2.51956655e+00 -1.64321340e-01  2.71092508e+00 -2.51956655e+00 -1.64321340e-01
  2.71092508e+00 -2.51956655e+00 -1.64321340e-01  2.71092508e+00 -2.51956655e+00
 -1.64321340e-01  2.71092508e+00 -2.69265742e+00 -2.57289021e+00  4.21477844e+00
 -2.69265742e+00 -2.57289021e+00  4.21477844e+00 -2.69265742e+00 -2.57289021e+00
  4.21477844e+00 -2.69265742e+00 -2.57289021e+00  4.21477844e+00 -2.69265742e+00
 -2.57289021e+00  4.21477844e+00 -2.69265742e+00 -2.57289021e+00  4.21477844e+00
 -2.69265742e+00 -2.57289021e+00  4.21477844e+00 -2.69265742e+00 -2.57289021e+00
  4.21477844e+00 -4.41241837e+00  4.46061236e-01  2.13894473e+00 -4.41241837e+00
  4.46061236e-01  2.13894473e+00 -1.72611263e+00  1.34374300e+00  3.90241419e+00
 -1.72611263e+00  1.34374300e+00  3.90241419e+00 -4.87615445e+00 -3.71415501e+00
  4.77189461e+00 -4.87615445e+00 -3.71415501e+00  4.77189461e+00 -4.87615445e+00
 -3.71415501e+00  4.77189461e+00 -4.87615445e+00 -3.71415501e+00  4.77189461e+00
 -4.87615445e+00 -3.71415501e+00  4.77189461e+00 -4.87615445e+00 -3.71415501e+00
  4.77189461e+00 -4.87615445e+00 -3.71415501e+00  4.77189461e+00 -4.87615445e+00
 -3.71415501e+00  4.77189461e+00 -9.24729300e-01 -3.37081816e+00  4.89823983e+00
 -9.24729300e-01 -3.37081816e+00  4.89823983e+00 -6.68475986e+00 -2.98322255e+00
  4.11748144e+00 -6.68475986e+00 -2.98322255e+00  4.11748144e+00 -4.93106522e+00
 -5.41922720e+00  5.91614119e+00 -4.93106522e+00 -5.41922720e+00  5.91614119e+00
 -3.87082138e+00 -2.28695890e+00 -1.71849014e+00 -3.87082138e+00 -2.28695890e+00
 -1.71849014e+00 -1.48864889e+00 -4.28278197e+00 -4.78929766e-01 -1.48864889e+00
 -4.28278197e+00 -4.78929766e-01
Total Energy                               R     -7.235015657507129e+02
Alpha Orbital Energies                     R   N=         309
 -1.91719744e+01 -1.91708401e+01 -1.91708164e+01 -1.44226381e+01 -1.44213127e+01
 -1.03735604e+01 -1.03426088e+01 -1.03416430e+01 -1.02591191e+01 -1.02292506e+01
 -1.02136657e+01 -1.02110677e+01 -1.02079036e+01 -1.02009192e+01 -1.01978555e+01
 -1.11414400e+00 -1.08743852e+00 -1.08422881e+00 -9.89863015e-01 -9.51273819e-01
 -8.62413116e-01 -8.05597249e-01 -7.78540492e-01 -7.12117731e-01 -7.04276780e-01
 -6.83050298e-01 -6.78342183e-01 -6.04127078e-01 -6.00021586e-01 -5.69059208e-01
 -5.67132108e-01 -5.24357836e-01 -5.17807869e-01 -4.91368100e-01 -4.87988184e-01
 -4.81270653e-01 -4.66805715e-01 -4.65052503e-01 -4.64403468e-01 -4.46077633e-01
 -4.36390565e-01 -4.29413809e-01 -4.20258360e-01 -3.96411349e-01 -3.93386429e-01
 -3.79938203e-01 -3.66398840e-01 -3.56331201e-01 -3.31696526e-01 -3.20485760e-01
 -3.19079399e-01 -3.14460511e-01 -2.86191595e-01 -2.81805397e-01 -2.72738520e-01
 -6.77082681e-02 -3.00230625e-02 -1.81668086e-02 -1.18242188e-02 -7.50045899e-03
  8.19705025e-03  9.11633160e-03  1.43471379e-02  2.48552278e-02  2.95562643e-02
  3.14823274e-02  3.97902341e-02  4.20405662e-02  5.04358085e-02  5.75000926e-02
  6.28019370e-02  6.68573916e-02  6.76116907e-02  7.56167031e-02  8.14712577e-02
  8.80119088e-02  9.91503786e-02  1.00595288e-01  1.05087824e-01  1.06976810e-01
  1.12932880e-01  1.16021273e-01  1.26402852e-01  1.28076426e-01  1.32791019e-01
  1.36140968e-01  1.44349152e-01  1.47892663e-01  1.52186565e-01  1.56442749e-01
  1.61395334e-01  1.70158611e-01  1.74257667e-01  1.81053087e-01  1.82113370e-01
  1.85380079e-01  1.89154759e-01  1.95166449e-01  1.96775643e-01  2.00853412e-01
  2.08412685e-01  2.11176077e-01  2.17887874e-01  2.21126296e-01  2.24799493e-01
  2.30921900e-01  2.33329127e-01  2.37912639e-01  2.41575859e-01  2.44813845e-01
  2.47588741e-01  2.55148535e-01  2.62105246e-01  2.64553890e-01  2.70402079e-01
  2.76830909e-01  2.83328428e-01  2.87523460e-01  2.90583150e-01  2.94706135e-01
  3.02609027e-01  3.10681319e-01  3.16189196e-01  3.18218493e-01  3.25497682e-01
  3.31164180e-01  3.34771151e-01  3.42750165e-01  3.50853498e-01  3.59272376e-01
  3.63831697e-01  3.67955973e-01  3.75083180e-01  3.84630969e-01  3.87320211e-01
  3.94820656e-01  4.07618506e-01  4.20527451e-01  4.30654627e-01  4.37013486e-01
  4.48263568e-01  4.66363257e-01  4.79776001e-01  4.94921510e-01  4.96150626e-01
  5.16906204e-01  5.30705694e-01  6.12674035e-01  6.43553324e-01  6.50620935e-01
  6.72701286e-01  6.95347261e-01  7.06844929e-01  7.11553082e-01  7.20689912e-01
  7.27886792e-01  7.33382604e-01  7.35023100e-01  7.59438306e-01  7.78612553e-01
  7.81493263e-01  7.98451115e-01  8.08409481e-01  8.11246303e-01  8.21636860e-01
  8.56020816e-01  8.60472044e-01  8.65078158e-01  8.77127318e-01  8.90819860e-01
  9.06166970e-01  9.33376095e-01  9.37010381e-01  9.40658052e-01  9.43977817e-01
  9.60952453e-01  9.65502867e-01  9.87334606e-01  9.98131742e-01  1.00897461e+00
  1.02255379e+00  1.03040875e+00  1.04566422e+00  1.05443551e+00  1.07873142e+00
  1.08100237e+00  1.08380286e+00  1.10445523e+00  1.12511696e+00  1.15237299e+00
  1.15697784e+00  1.17473207e+00  1.18029802e+00  1.21113686e+00  1.22298973e+00
  1.24227082e+00  1.25241856e+00  1.26334553e+00  1.27373381e+00  1.28227102e+00