Generated by Psi4
     FORCE                           RHF                       TESTBAS
Number of atoms                            I               33
Charge                                     I                0
Multiplicity                               I                1
Number of electrons                        I              126
Number of alpha electrons                  I               63
Number of beta electrons                   I               63
Number of basis functions                  I              355
Number of independent functions            I              355
Atomic numbers                             I   N=          33
           8           6           6           7           6           7
           6           8           8           1           1           6
           6           6           6           1           1           6
           1           1           6           1           1           1
           1           1           6           6           1           1
           1           1           1
Nuclear charges                            R   N=          33
  8.00000000e+00  6.00000000e+00  6.00000000e+00  7.00000000e+00  6.00000000e+00
  7.00000000e+00  6.00000000e+00  8.00000000e+00  8.00000000e+00  1.00000000e+00
  1.00000000e+00  6.00000000e+00  6.00000000e+00  6.00000000e+00  6.00000000e+00
  1.00000000e+00  1.00000000e+00  6.00000000e+00  1.00000000e+00  1.00000000e+00
  6.00000000e+00  1.00000000e+00  1.00000000e+00  1.00000000e+00  1.00000000e+00
  1.00000000e+00  6.00000000e+00  6.00000000e+00  1.00000000e+00  1.00000000e+00
  1.00000000e+00  1.00000000e+00  1.00000000e+00
Current cartesian coordinates              R   N=          99
  3.93670542e+00 -2.55853633e+00 -1.69305756e+00  8.03750684e-01 -6.07578839e-01
  1.01880840e+00  2.91954976e+00 -6.27511919e-01 -9.68882279e-01  3.62808239e+00
  1.68629864e+00 -1.99520999e+00  2.82955567e+00  4.07932930e+00 -1.27074718e+00
  1.14721943e+00  4.09715030e+00  7.38623369e-01  2.89222554e-01  2.03367375e+00
  2.12356181e+00  3.57476131e+00  6.00054692e+00 -2.29274897e+00 -9.11058981e-01
  2.37451618e+00  4.05918355e+00  6.64434987e-01  5.83502297e+00  1.39546370e+00
  4.97066261e+00  1.64538111e+00 -3.36696697e+00 -1.72554919e+00 -1.42610781e+00
 -2.47136294e-01 -2.04644676e+00 -1.37134713e+00 -2.76433146e+00 -4.43390497e+00
 -2.16361242e+00 -4.10950144e+00 -6.29860533e+00 -3.54953793e+00 -2.37404454e+00
 -3.93166970e+00 -3.35304665e+00 -5.73596101e+00 -5.33422305e+00 -4.69140643e-01
 -4.91957618e+00 -6.43502377e+00 -2.23604826e+00  2.02332391e-01 -5.66712887e+00
 -5.51081848e+00 -2.10798936e+00 -8.16958591e+00 -3.63761765e+00 -3.26222603e+00
 -3.84370259e+00 -2.24229544e+00  1.51219006e+00 -7.82869703e+00 -3.15936507e+00
  1.42828579e+00 -7.07035814e+00 -2.74654191e-01 -5.58513319e-02 -3.43783173e+00
 -4.15220535e+00  2.22799903e+00 -3.89388534e+00 -1.00582656e+00  3.17230992e+00
 -5.22410377e-01 -7.44938662e-01 -3.99526320e+00  1.57415935e+00 -2.43978818e+00
  3.18610181e+00  4.04704173e+00 -1.73720578e+00  4.52445785e+00  1.72775821e+00
 -4.33004456e+00  2.36192211e+00  4.16063583e-02 -2.46711857e+00  4.56728225e+00
  5.66517307e+00 -1.77187849e+00  3.23320812e+00  4.43677703e+00 -3.09908400e+00
  6.03475886e+00  3.93796931e+00  1.37044602e-01  5.40139697e+00
Integer atomic weights                     I   N=          33
          15          12          12          14          12          14
          12          15          15           1           1          12
          12          12          12           1           1          12
           1           1          12           1           1           1
           1           1          12          12           1           1
           1           1           1
Real atomic weights                        R   N=          33
  1.59949146e+01  1.20000000e+01  1.20000000e+01  1.40030740e+01  1.20000000e+01
  1.40030740e+01  1.20000000e+01  1.59949146e+01  1.59949146e+01  1.00782503e+00
  1.00782503e+00  1.20000000e+01  1.20000000e+01  1.20000000e+01  1.20000000e+01
  1.00782503e+00  1.00782503e+00  1.20000000e+01  1.00782503e+00  1.00782503e+00
  1.20000000e+01  1.00782503e+00  1.00782503e+00  1.00782503e+00  1.00782503e+00
  1.00782503e+00  1.20000000e+01  1.20000000e+01  1.00782503e+00  1.00782503e+00
  1.00782503e+00  1.00782503e+00  1.00782503e+00
Number of primitive shells                 I              353
Number of contracted shells                I              168
Pure/Cartesian d shells                    I                1
Pure/Cartesian f shells                    I                1
Highest angular momentum                   I                2
Largest degree of contraction              I                6
Shell types                                I   N=         168
           0           0           1           0           1           2
           0           1           0           0           1           0
           1           2           0           1           0           0
           1           0           1           2           0           1
           0           0           1           0           1           2
           0           1           0           0           1           0
           1           2           0           1           0           0
           1           0           1           2           0           1
           0           0           1           0           1           2
           0           1           0           0           1           0
           1           2           0           1           0           0
           1           0           1           2           0           1
           0           0           0           0           0           0
           1           0           1           2           0           1
           0           0           1           0           1           2
           0           1           0           0           1           0
           1           2           0           1           0           0
           1           0           1           2           0           1
           0           0           0           0           0           0
           1           0           1           2           0           1
           0           0           0           0           0           0
           1           0           1           2           0           1
           0           0           0           0           0           0
           0           0           0           0           0           0
           1           0           1           2           0           1
           0           0           1           0           1           2
           0           1           0           0           0           0
           0           0           0           0           0           0
Number of primitives per shell             I   N=         168
           6           3           3           1           1           1
           1           1           6           3           3           1
           1           1           1           1           6           3
           3           1           1           1           1           1
           6           3           3           1           1           1
           1           1           6           3           3           1
           1           1           1           1           6           3
           3           1           1           1           1           1
           6           3           3           1           1           1
           1           1           6           3           3           1
           1           1           1           1           6           3
           3           1           1           1           1           1
           3           1           3           1           6           3
           3           1           1           1           1           1
           6           3           3           1           1           1
           1           1           6           3           3           1
           1           1           1           1           6           3
           3           1           1           1           1           1
           3           1           3           1           6           3
           3           1           1           1           1           1
           3           1           3           1           6           3
           3           1           1           1           1           1
           3           1           3           1           3           1
           3           1           3           1           6           3
           3           1           1           1           1           1
           6           3           3           1           1           1
           1           1           3           1           3           1
           3           1           3           1           3           1
Shell to atom map                          I   N=         168
           1           1           1           1           1           1
           1           1           2           2           2           2
           2           2           2           2           3           3
           3           3           3           3           3           3
           4           4           4           4           4           4
           4           4           5           5           5           5
           5           5           5           5           6           6
           6           6           6           6           6           6
           7           7           7           7           7           7
           7           7           8           8           8           8
           8           8           8           8           9           9
           9           9           9           9           9           9
          10          10          11          11          12          12
          12          12          12          12          12          12
          13          13          13          13          13          13
          13          13          14          14          14          14
          14          14          14          14          15          15
          15          15          15          15          15          15
          16          16          17          17          18          18
          18          18          18          18          18          18
          19          19          20          20          21          21
          21          21          21          21          21          21
          22          22          23          23          24          24
          25          25          26          26          27          27
          27          27          27          27          27          27
          28          28          28          28          28          28
          28          28          29          29          30          30
          31          31          32          32          33          33
Primitive exponents                        R   N=         353
  5.48467170e+03  8.25234950e+02  1.88046960e+02  5.29645000e+01  1.68975700e+01
  5.79963530e+00  1.55396160e+01  3.59993360e+00  1.01376180e+00  1.55396160e+01
  3.59993360e+00  1.01376180e+00  2.70005800e-01  2.70005800e-01  8.00000000e-01
  8.45000000e-02  8.45000000e-02  3.04752490e+03  4.57369510e+02  1.03948690e+02
  2.92101550e+01  9.28666300e+00  3.16392700e+00  7.86827240e+00  1.88128850e+00
  5.44249300e-01  7.86827240e+00  1.88128850e+00  5.44249300e-01  1.68714400e-01
  1.68714400e-01  8.00000000e-01  4.38000000e-02  4.38000000e-02  3.04752490e+03
  4.57369510e+02  1.03948690e+02  2.92101550e+01  9.28666300e+00  3.16392700e+00
  7.86827240e+00  1.88128850e+00  5.44249300e-01  7.86827240e+00  1.88128850e+00
  5.44249300e-01  1.68714400e-01  1.68714400e-01  8.00000000e-01  4.38000000e-02
  4.38000000e-02  4.17351100e+03  6.27457900e+02  1.42902100e+02  4.02343300e+01
  1.28202100e+01  4.39043700e+00  1.16263580e+01  2.71628000e+00  7.72218000e-01
  1.16263580e+01  2.71628000e+00  7.72218000e-01  2.12031300e-01  2.12031300e-01
  8.00000000e-01  6.39000000e-02  6.39000000e-02  3.04752490e+03  4.57369510e+02
  1.03948690e+02  2.92101550e+01  9.28666300e+00  3.16392700e+00  7.86827240e+00
  1.88128850e+00  5.44249300e-01  7.86827240e+00  1.88128850e+00  5.44249300e-01
  1.68714400e-01  1.68714400e-01  8.00000000e-01  4.38000000e-02  4.38000000e-02
  4.17351100e+03  6.27457900e+02  1.42902100e+02  4.02343300e+01  1.28202100e+01
  4.39043700e+00  1.16263580e+01  2.71628000e+00  7.72218000e-01  1.16263580e+01
  2.71628000e+00  7.72218000e-01  2.12031300e-01  2.12031300e-01  8.00000000e-01
  6.39000000e-02  6.39000000e-02  3.04752490e+03  4.57369510e+02  1.03948690e+02
  2.92101550e+01  9.28666300e+00  3.16392700e+00  7.86827240e+00  1.88128850e+00
  5.44249300e-01  7.86827240e+00  1.88128850e+00  5.44249300e-01  1.68714400e-01
  1.68714400e-01  8.00000000e-01  4.38000000e-02  4.38000000e-02  5.48467170e+03
  8.25234950e+02  1.88046960e+02  5.29645000e+01  1.68975700e+01  5.79963530e+00
  1.55396160e+01  3.59993360e+00  1.01376180e+00  1.55396160e+01  3.59993360e+00
  1.01376180e+00  2.70005800e-01  2.70005800e-01  8.00000000e-01  8.45000000e-02
  8.45000000e-02  5.48467170e+03  8.25234950e+02  1.88046960e+02  5.29645000e+01
  1.68975700e+01  5.79963530e+00  1.55396160e+01  3.59993360e+00  1.01376180e+00
  1.55396160e+01  3.59993360e+00  1.01376180e+00  2.70005800e-01  2.70005800e-01
  8.00000000e-01  8.45000000e-02  8.45000000e-02  1.87311370e+01  2.82539370e+00
  6.40121700e-01  1.61277800e-01  1.87311370e+01  2.82539370e+00  6.40121700e-01
  1.61277800e-01  3.04752490e+03  4.57369510e+02  1.03948690e+02  2.92101550e+01
  9.28666300e+00  3.16392700e+00  7.86827240e+00  1.88128850e+00  5.44249300e-01
  7.86827240e+00  1.88128850e+00  5.44249300e-01  1.68714400e-01  1.68714400e-01
  8.00000000e-01  4.38000000e-02  4.38000000e-02  3.04752490e+03  4.57369510e+02
  1.03948690e+02  2.92101550e+01  9.28666300e+00  3.16392700e+00  7.86827240e+00
  1.88128850e+00  5.44249300e-01  7.86827240e+00  1.88128850e+00  5.44249300e-01
  1.68714400e-01  1.68714400e-01  8.00000000e-01  4.38000000e-02  4.38000000e-02
  3.04752490e+03  4.57369510e+02  1.03948690e+02  2.92101550e+01  9.28666300e+00
  3.16392700e+00  7.86827240e+00  1.88128850e+00  5.44249300e-01  7.86827240e+00
  1.88128850e+00  5.44249300e-01  1.68714400e-01  1.68714400e-01  8.00000000e-01
  4.38000000e-02  4.38000000e-02  3.04752490e+03  4.57369510e+02  1.03948690e+02
  2.92101550e+01  9.28666300e+00  3.16392700e+00  7.86827240e+00  1.88128850e+00
  5.44249300e-01  7.86827240e+00  1.88128850e+00  5.44249300e-01  1.68714400e-01
  1.68714400e-01  8.00000000e-01  4.38000000e-02  4.38000000e-02  1.87311370e+01
  2.82539370e+00  6.40121700e-01  1.61277800e-01  1.87311370e+01  2.82539370e+00
  6.40121700e-01  1.61277800e-01  3.04752490e+03  4.57369510e+02  1.03948690e+02
  2.92101550e+01  9.28666300e+00  3.16392700e+00  7.86827240e+00  1.88128850e+00
  5.44249300e-01  7.86827240e+00  1.88128850e+00  5.44249300e-01  1.68714400e-01
  1.68714400e-01  8.00000000e-01  4.38000000e-02  4.38000000e-02  1.87311370e+01
  2.82539370e+00  6.40121700e-01  1.61277800e-01  1.87311370e+01  2.82539370e+00
  6.40121700e-01  1.61277800e-01  3.04752490e+03  4.57369510e+02  1.03948690e+02
  2.92101550e+01  9.28666300e+00  3.16392700e+00  7.86827240e+00  1.88128850e+00
  5.44249300e-01  7.86827240e+00  1.88128850e+00  5.44249300e-01  1.68714400e-01
  1.68714400e-01  8.00000000e-01  4.38000000e-02  4.38000000e-02  1.87311370e+01
  2.82539370e+00  6.40121700e-01  1.61277800e-01  1.87311370e+01  2.82539370e+00
  6.40121700e-01  1.61277800e-01  1.87311370e+01  2.82539370e+00  6.40121700e-01
  1.61277800e-01  1.87311370e+01  2.82539370e+00  6.40121700e-01  1.61277800e-01
  1.87311370e+01  2.82539370e+00  6.40121700e-01  1.61277800e-01  3.04752490e+03
  4.57369510e+02  1.03948690e+02  2.92101550e+01  9.28666300e+00  3.16392700e+00
  7.86827240e+00  1.88128850e+00  5.44249300e-01  7.86827240e+00  1.88128850e+00
  5.44249300e-01  1.68714400e-01  1.68714400e-01  8.00000000e-01  4.38000000e-02
  4.38000000e-02  3.04752490e+03  4.57369510e+02  1.03948690e+02  2.92101550e+01
  9.28666300e+00  3.16392700e+00  7.86827240e+00  1.88128850e+00  5.44249300e-01
  7.86827240e+00  1.88128850e+00  5.44249300e-01  1.68714400e-01  1.68714400e-01
  8.00000000e-01  4.38000000e-02  4.38000000e-02  1.87311370e+01  2.82539370e+00
  6.40121700e-01  1.61277800e-01  1.87311370e+01  2.82539370e+00  6.40121700e-01
  1.61277800e-01  1.87311370e+01  2.82539370e+00  6.40121700e-01  1.61277800e-01
  1.87311370e+01  2.82539370e+00  6.40121700e-01  1.61277800e-01  1.87311370e+01
  2.82539370e+00  6.40121700e-01  1.61277800e-01
Contraction coefficients                   R   N=         353
  1.83109981e-03  1.39500985e-02  6.84450927e-02  2.32714275e-01  4.70192950e-01
  3.58520862e-01 -1.10777504e-01 -1.48026305e-01  1.13076704e+00  7.08742995e-02
  3.39752798e-01  7.27158595e-01  1.00000000e+00  1.00000000e+00  1.00000000e+00
  1.00000000e+00  1.00000000e+00  1.83470016e-03  1.40373012e-02  6.88426061e-02
  2.32184421e-01  4.67941342e-01  3.62312032e-01 -1.19332409e-01 -1.60854212e-01
  1.14345648e+00  6.89990956e-02  3.16423980e-01  7.44308252e-01  1.00000000e+00
  1.00000000e+00  1.00000000e+00  1.00000000e+00  1.00000000e+00  1.83470016e-03
  1.40373012e-02  6.88426061e-02  2.32184421e-01  4.67941342e-01  3.62312032e-01
 -1.19332409e-01 -1.60854212e-01  1.14345648e+00  6.89990956e-02  3.16423980e-01
  7.44308252e-01  1.00000000e+00  1.00000000e+00  1.00000000e+00  1.00000000e+00
  1.00000000e+00  1.83479944e-03  1.39949958e-02  6.85869792e-02  2.32240930e-01
  4.69069858e-01  3.60454891e-01 -1.14961023e-01 -1.69118034e-01  1.14585223e+00
  6.75800232e-02  3.23907111e-01  7.40895255e-01  1.00000000e+00  1.00000000e+00
  1.00000000e+00  1.00000000e+00  1.00000000e+00  1.83470016e-03  1.40373012e-02
  6.88426061e-02  2.32184421e-01  4.67941342e-01  3.62312032e-01 -1.19332409e-01
 -1.60854212e-01  1.14345648e+00  6.89990956e-02  3.16423980e-01  7.44308252e-01
  1.00000000e+00  1.00000000e+00  1.00000000e+00  1.00000000e+00  1.00000000e+00
  1.83479944e-03  1.39949958e-02  6.85869792e-02  2.32240930e-01  4.69069858e-01
  3.60454891e-01 -1.14961023e-01 -1.69118034e-01  1.14585223e+00  6.75800232e-02
  3.23907111e-01  7.40895255e-01  1.00000000e+00  1.00000000e+00  1.00000000e+00
  1.00000000e+00  1.00000000e+00  1.83470016e-03  1.40373012e-02  6.88426061e-02
  2.32184421e-01  4.67941342e-01  3.62312032e-01 -1.19332409e-01 -1.60854212e-01
  1.14345648e+00  6.89990956e-02  3.16423980e-01  7.44308252e-01  1.00000000e+00
  1.00000000e+00  1.00000000e+00  1.00000000e+00  1.00000000e+00  1.83109981e-03
  1.39500985e-02  6.84450927e-02  2.32714275e-01  4.70192950e-01  3.58520862e-01
 -1.10777504e-01 -1.48026305e-01  1.13076704e+00  7.08742995e-02  3.39752798e-01
  7.27158595e-01  1.00000000e+00  1.00000000e+00  1.00000000e+00  1.00000000e+00
  1.00000000e+00  1.83109981e-03  1.39500985e-02  6.84450927e-02  2.32714275e-01
  4.70192950e-01  3.58520862e-01 -1.10777504e-01 -1.48026305e-01  1.13076704e+00
  7.08742995e-02  3.39752798e-01  7.27158595e-01  1.00000000e+00  1.00000000e+00
  1.00000000e+00  1.00000000e+00  1.00000000e+00  3.34945995e-02  2.34726947e-01
  8.13757318e-01  1.00000000e+00  3.34945995e-02  2.34726947e-01  8.13757318e-01
  1.00000000e+00  1.83470016e-03  1.40373012e-02  6.88426061e-02  2.32184421e-01
  4.67941342e-01  3.62312032e-01 -1.19332409e-01 -1.60854212e-01  1.14345648e+00
  6.89990956e-02  3.16423980e-01  7.44308252e-01  1.00000000e+00  1.00000000e+00
  1.00000000e+00  1.00000000e+00  1.00000000e+00  1.83470016e-03  1.40373012e-02
  6.88426061e-02  2.32184421e-01  4.67941342e-01  3.62312032e-01 -1.19332409e-01
 -1.60854212e-01  1.14345648e+00  6.89990956e-02  3.16423980e-01  7.44308252e-01
  1.00000000e+00  1.00000000e+00  1.00000000e+00  1.00000000e+00  1.00000000e+00
  1.83470016e-03  1.40373012e-02  6.88426061e-02  2.32184421e-01  4.67941342e-01
  3.62312032e-01 -1.19332409e-01 -1.60854212e-01  1.14345648e+00  6.89990956e-02
  3.16423980e-01  7.44308252e-01  1.00000000e+00  1.00000000e+00  1.00000000e+00
  1.00000000e+00  1.00000000e+00  1.83470016e-03  1.40373012e-02  6.88426061e-02
  2.32184421e-01  4.67941342e-01  3.62312032e-01 -1.19332409e-01 -1.60854212e-01
  1.14345648e+00  6.89990956e-02  3.16423980e-01  7.44308252e-01  1.00000000e+00
  1.00000000e+00  1.00000000e+00  1.00000000e+00  1.00000000e+00  3.34945995e-02
  2.34726947e-01  8.13757318e-01  1.00000000e+00  3.34945995e-02  2.34726947e-01
  8.13757318e-01  1.00000000e+00  1.83470016e-03  1.40373012e-02  6.88426061e-02
  2.32184421e-01  4.67941342e-01  3.62312032e-01 -1.19332409e-01 -1.60854212e-01
  1.14345648e+00  6.89990956e-02  3.16423980e-01  7.44308252e-01  1.00000000e+00
  1.00000000e+00  1.00000000e+00  1.00000000e+00  1.00000000e+00  3.34945995e-02
  2.34726947e-01  8.13757318e-01  1.00000000e+00  3.34945995e-02  2.34726947e-01
  8.13757318e-01  1.00000000e+00  1.83470016e-03  1.40373012e-02  6.88426061e-02
  2.32184421e-01  4.67941342e-01  3.62312032e-01 -1.19332409e-01 -1.60854212e-01
  1.14345648e+00  6.89990956e-02  3.16423980e-01  7.44308252e-01  1.00000000e+00
  1.00000000e+00  1.00000000e+00  1.00000000e+00  1.00000000e+00  3.34945995e-02
  2.34726947e-01  8.13757318e-01  1.00000000e+00  3.34945995e-02  2.34726947e-01
  8.13757318e-01  1.00000000e+00  3.34945995e-02  2.34726947e-01  8.13757318e-01
  1.00000000e+00  3.34945995e-02  2.34726947e-01  8.13757318e-01  1.00000000e+00
  3.34945995e-02  2.34726947e-01  8.13757318e-01  1.00000000e+00  1.83470016e-03
  1.40373012e-02  6.88426061e-02  2.32184421e-01  4.67941342e-01  3.62312032e-01
 -1.19332409e-01 -1.60854212e-01  1.14345648e+00  6.89990956e-02  3.16423980e-01
  7.44308252e-01  1.00000000e+00  1.00000000e+00  1.00000000e+00  1.00000000e+00
  1.00000000e+00  1.83470016e-03  1.40373012e-02  6.88426061e-02  2.32184421e-01
  4.67941342e-01  3.62312032e-01 -1.19332409e-01 -1.60854212e-01  1.14345648e+00
  6.89990956e-02  3.16423980e-01  7.44308252e-01  1.00000000e+00  1.00000000e+00
  1.00000000e+00  1.00000000e+00  1.00000000e+00  3.34945995e-02  2.34726947e-01
  8.13757318e-01  1.00000000e+00  3.34945995e-02  2.34726947e-01  8.13757318e-01
  1.00000000e+00  3.34945995e-02  2.34726947e-01  8.13757318e-01  1.00000000e+00
  3.34945995e-02  2.34726947e-01  8.13757318e-01  1.00000000e+00  3.34945995e-02
  2.34726947e-01  8.13757318e-01  1.00000000e+00
Coordinates of each shell                  R   N=         504
  3.93670542e+00 -2.55853633e+00 -1.69305756e+00  3.93670542e+00 -2.55853633e+00
 -1.69305756e+00  3.93670542e+00 -2.55853633e+00 -1.69305756e+00  3.93670542e+00
 -2.55853633e+00 -1.69305756e+00  3.93670542e+00 -2.55853633e+00 -1.69305756e+00
  3.93670542e+00 -2.55853633e+00 -1.69305756e+00  3.93670542e+00 -2.55853633e+00
 -1.69305756e+00  3.93670542e+00 -2.55853633e+00 -1.69305756e+00  8.03750684e-01
 -6.07578839e-01  1.01880840e+00  8.03750684e-01 -6.07578839e-01  1.01880840e+00
  8.03750684e-01 -6.07578839e-01  1.01880840e+00  8.03750684e-01 -6.07578839e-01
  1.01880840e+00  8.03750684e-01 -6.07578839e-01  1.01880840e+00  8.03750684e-01
 -6.07578839e-01  1.01880840e+00  8.03750684e-01 -6.07578839e-01  1.01880840e+00
  8.03750684e-01 -6.07578839e-01  1.01880840e+00  2.91954976e+00 -6.27511919e-01
 -9.68882279e-01  2.91954976e+00 -6.27511919e-01 -9.68882279e-01  2.91954976e+00
 -6.27511919e-01 -9.68882279e-01  2.91954976e+00 -6.27511919e-01 -9.68882279e-01
  2.91954976e+00 -6.27511919e-01 -9.68882279e-01  2.91954976e+00 -6.27511919e-01
 -9.68882279e-01  2.91954976e+00 -6.27511919e-01 -9.68882279e-01  2.91954976e+00
 -6.27511919e-01 -9.68882279e-01  3.62808239e+00  1.68629864e+00 -1.99520999e+00
  3.62808239e+00  1.68629864e+00 -1.99520999e+00  3.62808239e+00  1.68629864e+00
 -1.99520999e+00  3.62808239e+00  1.68629864e+00 -1.99520999e+00  3.62808239e+00
  1.68629864e+00 -1.99520999e+00  3.62808239e+00  1.68629864e+00 -1.99520999e+00
  3.62808239e+00  1.68629864e+00 -1.99520999e+00  3.62808239e+00  1.68629864e+00
 -1.99520999e+00  2.82955567e+00  4.07932930e+00 -1.27074718e+00  2.82955567e+00
  4.07932930e+00 -1.27074718e+00  2.82955567e+00  4.07932930e+00 -1.27074718e+00
  2.82955567e+00  4.07932930e+00 -1.27074718e+00  2.82955567e+00  4.07932930e+00
 -1.27074718e+00  2.82955567e+00  4.07932930e+00 -1.27074718e+00  2.82955567e+00
  4.07932930e+00 -1.27074718e+00  2.82955567e+00  4.07932930e+00 -1.27074718e+00
  1.14721943e+00  4.09715030e+00  7.38623369e-01  1.14721943e+00  4.09715030e+00
  7.38623369e-01  1.14721943e+00  4.09715030e+00  7.38623369e-01  1.14721943e+00
  4.09715030e+00  7.38623369e-01  1.14721943e+00  4.09715030e+00  7.38623369e-01
  1.14721943e+00  4.09715030e+00  7.38623369e-01  1.14721943e+00  4.09715030e+00
  7.38623369e-01  1.14721943e+00  4.09715030e+00  7.38623369e-01  2.89222554e-01
  2.03367375e+00  2.12356181e+00  2.89222554e-01  2.03367375e+00  2.12356181e+00
  2.89222554e-01  2.03367375e+00  2.12356181e+00  2.89222554e-01  2.03367375e+00
  2.12356181e+00  2.89222554e-01  2.03367375e+00  2.12356181e+00  2.89222554e-01
  2.03367375e+00  2.12356181e+00  2.89222554e-01  2.03367375e+00  2.12356181e+00
  2.89222554e-01  2.03367375e+00  2.12356181e+00  3.57476131e+00  6.00054692e+00
 -2.29274897e+00  3.57476131e+00  6.00054692e+00 -2.29274897e+00  3.57476131e+00
  6.00054692e+00 -2.29274897e+00  3.57476131e+00  6.00054692e+00 -2.29274897e+00
  3.57476131e+00  6.00054692e+00 -2.29274897e+00  3.57476131e+00  6.00054692e+00
 -2.29274897e+00  3.57476131e+00  6.00054692e+00 -2.29274897e+00  3.57476131e+00
  6.00054692e+00 -2.29274897e+00 -9.11058981e-01  2.37451618e+00  4.05918355e+00
 -9.11058981e-01  2.37451618e+00  4.05918355e+00 -9.11058981e-01  2.37451618e+00
  4.05918355e+00 -9.11058981e-01  2.37451618e+00  4.05918355e+00 -9.11058981e-01
  2.37451618e+00  4.05918355e+00 -9.11058981e-01  2.37451618e+00  4.05918355e+00
 -9.11058981e-01  2.37451618e+00  4.05918355e+00 -9.11058981e-01  2.37451618e+00
  4.05918355e+00  6.64434987e-01  5.83502297e+00  1.39546370e+00  6.64434987e-01
  5.83502297e+00  1.39546370e+00  4.97066261e+00  1.64538111e+00 -3.36696697e+00
  4.97066261e+00  1.64538111e+00 -3.36696697e+00 -1.72554919e+00 -1.42610781e+00
 -2.47136294e-01 -1.72554919e+00 -1.42610781e+00 -2.47136294e-01 -1.72554919e+00
 -1.42610781e+00 -2.47136294e-01 -1.72554919e+00 -1.42610781e+00 -2.47136294e-01
 -1.72554919e+00 -1.42610781e+00 -2.47136294e-01 -1.72554919e+00 -1.42610781e+00
 -2.47136294e-01 -1.72554919e+00 -1.42610781e+00 -2.47136294e-01 -1.72554919e+00
 -1.42610781e+00 -2.47136294e-01 -2.04644676e+00 -1.37134713e+00 -2.76433146e+00
 -2.04644676e+00 -1.37134713e+00 -2.76433146e+00 -2.04644676e+00 -1.37134713e+00
 -2.76433146e+00 -2.04644676e+00 -1.37134713e+00 -2.76433146e+00 -2.04644676e+00
 -1.37134713e+00 -2.76433146e+00 -2.04644676e+00 -1.37134713e+00 -2.76433146e+00
 -2.04644676e+00 -1.37134713e+00 -2.76433146e+00 -2.04644676e+00 -1.37134713e+00
 -2.76433146e+00 -4.43390497e+00 -2.16361242e+00 -4.10950144e+00 -4.43390497e+00
 -2.16361242e+00 -4.10950144e+00 -4.43390497e+00 -2.16361242e+00 -4.10950144e+00
 -4.43390497e+00 -2.16361242e+00 -4.10950144e+00 -4.43390497e+00 -2.16361242e+00
 -4.10950144e+00 -4.43390497e+00 -2.16361242e+00 -4.10950144e+00 -4.43390497e+00
 -2.16361242e+00 -4.10950144e+00 -4.43390497e+00 -2.16361242e+00 -4.10950144e+00
 -6.29860533e+00 -3.54953793e+00 -2.37404454e+00 -6.29860533e+00 -3.54953793e+00
 -2.37404454e+00 -6.29860533e+00 -3.54953793e+00 -2.37404454e+00 -6.29860533e+00
 -3.54953793e+00 -2.37404454e+00 -6.29860533e+00 -3.54953793e+00 -2.37404454e+00
 -6.29860533e+00 -3.54953793e+00 -2.37404454e+00 -6.29860533e+00 -3.54953793e+00
 -2.37404454e+00 -6.29860533e+00 -3.54953793e+00 -2.37404454e+00 -3.93166970e+00
 -3.35304665e+00 -5.73596101e+00 -3.93166970e+00 -3.35304665e+00 -5.73596101e+00
 -5.33422305e+00 -4.69140643e-01 -4.91957618e+00 -5.33422305e+00 -4.69140643e-01
 -4.91957618e+00 -6.43502377e+00 -2.23604826e+00  2.02332391e-01 -6.43502377e+00
 -2.23604826e+00  2.02332391e-01 -6.43502377e+00 -2.23604826e+00  2.02332391e-01
 -6.43502377e+00 -2.23604826e+00  2.02332391e-01 -6.43502377e+00 -2.23604826e+00
  2.02332391e-01 -6.43502377e+00 -2.23604826e+00  2.02332391e-01 -6.43502377e+00
 -2.23604826e+00  2.02332391e-01 -6.43502377e+00 -2.23604826e+00  2.02332391e-01
 -5.66712887e+00 -5.51081848e+00 -2.10798936e+00 -5.66712887e+00 -5.51081848e+00
 -2.10798936e+00 -8.16958591e+00 -3.63761765e+00 -3.26222603e+00 -8.16958591e+00
 -3.63761765e+00 -3.26222603e+00 -3.84370259e+00 -2.24229544e+00  1.51219006e+00
 -3.84370259e+00 -2.24229544e+00  1.51219006e+00 -3.84370259e+00 -2.24229544e+00
  1.51219006e+00 -3.84370259e+00 -2.24229544e+00  1.51219006e+00 -3.84370259e+00
 -2.24229544e+00  1.51219006e+00 -3.84370259e+00 -2.24229544e+00  1.51219006e+00
 -3.84370259e+00 -2.24229544e+00  1.51219006e+00 -3.84370259e+00 -2.24229544e+00
  1.51219006e+00 -7.82869703e+00 -3.15936507e+00  1.42828579e+00 -7.82869703e+00
 -3.15936507e+00  1.42828579e+00 -7.07035814e+00 -2.74654191e-01 -5.58513319e-02
 -7.07035814e+00 -2.74654191e-01 -5.58513319e-02 -3.43783173e+00 -4.15220535e+00
  2.22799903e+00 -3.43783173e+00 -4.15220535e+00  2.22799903e+00 -3.89388534e+00
 -1.00582656e+00  3.17230992e+00 -3.89388534e+00 -1.00582656e+00  3.17230992e+00
 -5.22410377e-01 -7.44938662e-01 -3.99526320e+00 -5.22410377e-01 -7.44938662e-01
 -3.99526320e+00  1.57415935e+00 -2.43978818e+00  3.18610181e+00  1.57415935e+00
 -2.43978818e+00  3.18610181e+00  1.57415935e+00 -2.43978818e+00  3.18610181e+00
  1.57415935e+00 -2.43978818e+00  3.18610181e+00  1.57415935e+00 -2.43978818e+00
  3.18610181e+00  1.57415935e+00 -2.43978818e+00  3.18610181e+00  1.57415935e+00
 -2.43978818e+00  3.18610181e+00  1.57415935e+00 -2.43978818e+00  3.18610181e+00