Generated by Psi4
     FORCE                           RHF                       TESTBAS
Number of atoms                            I               32
Charge                                     I                0
Multiplicity                               I                1
Number of electrons                        I              126
Number of alpha electrons                  I               63
Number of beta electrons                   I               63
Number of basis functions                  I              340
Number of independent functions            I              340
Atomic numbers                             I   N=          32
           8           6           6           6           6           6
           6           1           1           1           1           7
           6           1           1           1           6           6
           6           6           6           6           1           1
           1           1          17           1           1           1
           1           1
Nuclear charges                            R   N=          32
  8.00000000e+00  6.00000000e+00  6.00000000e+00  6.00000000e+00  6.00000000e+00
  6.00000000e+00  6.00000000e+00  1.00000000e+00  1.00000000e+00  1.00000000e+00
  1.00000000e+00  7.00000000e+00  6.00000000e+00  1.00000000e+00  1.00000000e+00
  1.00000000e+00  6.00000000e+00  6.00000000e+00  6.00000000e+00  6.00000000e+00
  6.00000000e+00  6.00000000e+00  1.00000000e+00  1.00000000e+00  1.00000000e+00
  1.00000000e+00  1.70000000e+01  1.00000000e+00  1.00000000e+00  1.00000000e+00
  1.00000000e+00  1.00000000e+00
Current cartesian coordinates              R   N=          96
  2.68257390e+00 -2.71074880e+00 -3.85111727e+00 -7.09025139e-01 -1.85248484e-01
 -2.08630314e+00  2.10945803e+00 -7.53923534e-01 -2.78325998e+00  3.99627803e+00
  1.43171292e+00 -2.61091434e+00  2.88418933e+00  3.87233591e+00 -1.51984394e+00
  3.60162066e-01  4.59021999e+00 -2.80820125e+00 -1.16083699e+00  2.26038911e+00
 -3.69660001e+00  7.18699190e-01  5.80281933e+00 -4.45186165e+00 -7.74720907e-01
  5.71685318e+00 -1.49137002e+00 -3.18680949e+00  2.66090863e+00 -3.75888931e+00
 -6.35752460e-01  1.78276944e+00 -5.64878794e+00 -2.43846719e+00 -2.13197188e+00
 -3.05015787e+00 -2.50242576e+00 -4.55406272e+00 -1.68822517e+00 -3.34902039e+00
 -4.28391450e+00  1.79043023e-01 -6.44198396e-01 -5.45032823e+00 -1.46500075e+00
 -3.73059203e+00 -5.83793576e+00 -2.74890681e+00 -1.35483939e+00  2.81607357e-01
  7.19157561e-01 -3.68380731e+00  1.46234831e+00  1.23482725e+00 -4.53302471e+00
  1.93239991e+00  3.68014137e+00 -3.05204113e+00  1.20921463e+00  5.74142037e+00
 -7.61245370e-01 -9.02877347e-03  5.31295817e+00  5.10188164e-02 -4.78739564e-01
  2.83909769e+00 -4.87924080e+00  1.98622568e+00 -3.44753963e-01 -6.34646412e+00
  2.85086207e+00  3.97018820e+00 -3.67610257e+00  1.56642667e+00  7.66476939e+00
  4.09313031e-01 -6.25319366e-01  6.87987820e+00  2.93073124e+00 -2.14058516e+00
  2.56707537e+00 -1.94237201e+00 -2.48990624e+00 -4.87628812e+00  4.68410964e+00
  1.72747278e+00 -4.54904346e+00  5.63248002e+00  7.83112039e-01 -1.52084648e+00
  4.25380392e+00  5.41517873e+00 -1.71545595e+00  2.57991948e+00  3.63101332e+00
  5.13044420e-01
Integer atomic weights                     I   N=          32
          15          12          12          12          12          12
          12           1           1           1           1          14
          12           1           1           1          12          12
          12          12          12          12           1           1
           1           1          34           1           1           1
           1           1
Real atomic weights                        R   N=          32
  1.59949146e+01  1.20000000e+01  1.20000000e+01  1.20000000e+01  1.20000000e+01
  1.20000000e+01  1.20000000e+01  1.00782503e+00  1.00782503e+00  1.00782503e+00
  1.00782503e+00  1.40030740e+01  1.20000000e+01  1.00782503e+00  1.00782503e+00
  1.00782503e+00  1.20000000e+01  1.20000000e+01  1.20000000e+01  1.20000000e+01
  1.20000000e+01  1.20000000e+01  1.00782503e+00  1.00782503e+00  1.00782503e+00
  1.00782503e+00  3.49688527e+01  1.00782503e+00  1.00782503e+00  1.00782503e+00
  1.00782503e+00  1.00782503e+00
Number of primitive shells                 I              348
Number of contracted shells                I              162
Pure/Cartesian d shells                    I                1
Pure/Cartesian f shells                    I                1
Highest angular momentum                   I                2
Largest degree of contraction              I                6
Shell types                                I   N=         162
           0           0           1           0           1           2
           0           1           0           0           1           0
           1           2           0           1           0           0
           1           0           1           2           0           1
           0           0           1           0           1           2
           0           1           0           0           1           0
           1           2           0           1           0           0
           1           0           1           2           0           1
           0           0           1           0           1           2
           0           1           0           0           0           0
           0           0           0           0           0           0
           1           0           1           2           0           1
           0           0           1           0           1           2
           0           1           0           0           0           0
           0           0           0           0           1           0
           1           2           0           1           0           0
           1           0           1           2           0           1
           0           0           1           0           1           2
           0           1           0           0           1           0
           1           2           0           1           0           0
           1           0           1           2           0           1
           0           0           1           0           1           2
           0           1           0           0           0           0
           0           0           0           0           0           0
           1           0           1           0           1           2
           0           1           0           0           0           0
           0           0           0           0           0           0
Number of primitives per shell             I   N=         162
           6           3           3           1           1           1
           1           1           6           3           3           1
           1           1           1           1           6           3
           3           1           1           1           1           1
           6           3           3           1           1           1
           1           1           6           3           3           1
           1           1           1           1           6           3
           3           1           1           1           1           1
           6           3           3           1           1           1
           1           1           3           1           3           1
           3           1           3           1           6           3
           3           1           1           1           1           1
           6           3           3           1           1           1
           1           1           3           1           3           1
           3           1           6           3           3           1
           1           1           1           1           6           3
           3           1           1           1           1           1
           6           3           3           1           1           1
           1           1           6           3           3           1
           1           1           1           1           6           3
           3           1           1           1           1           1
           6           3           3           1           1           1
           1           1           3           1           3           1
           3           1           3           1           6           6
           6           3           3           1           1           1
           1           1           3           1           3           1
           3           1           3           1           3           1
Shell to atom map                          I   N=         162
           1           1           1           1           1           1
           1           1           2           2           2           2
           2           2           2           2           3           3
           3           3           3           3           3           3
           4           4           4           4           4           4
           4           4           5           5           5           5
           5           5           5           5           6           6
           6           6           6           6           6           6
           7           7           7           7           7           7
           7           7           8           8           9           9
          10          10          11          11          12          12
          12          12          12          12          12          12
          13          13          13          13          13          13
          13          13          14          14          15          15
          16          16          17          17          17          17
          17          17          17          17          18          18
          18          18          18          18          18          18
          19          19          19          19          19          19
          19          19          20          20          20          20
          20          20          20          20          21          21
          21          21          21          21          21          21
          22          22          22          22          22          22
          22          22          23          23          24          24
          25          25          26          26          27          27
          27          27          27          27          27          27
          27          27          28          28          29          29
          30          30          31          31          32          32
Primitive exponents                        R   N=         348
  5.48467170e+03  8.25234950e+02  1.88046960e+02  5.29645000e+01  1.68975700e+01
  5.79963530e+00  1.55396160e+01  3.59993360e+00  1.01376180e+00  1.55396160e+01
  3.59993360e+00  1.01376180e+00  2.70005800e-01  2.70005800e-01  8.00000000e-01
  8.45000000e-02  8.45000000e-02  3.04752490e+03  4.57369510e+02  1.03948690e+02
  2.92101550e+01  9.28666300e+00  3.16392700e+00  7.86827240e+00  1.88128850e+00
  5.44249300e-01  7.86827240e+00  1.88128850e+00  5.44249300e-01  1.68714400e-01
  1.68714400e-01  8.00000000e-01  4.38000000e-02  4.38000000e-02  3.04752490e+03
  4.57369510e+02  1.03948690e+02  2.92101550e+01  9.28666300e+00  3.16392700e+00
  7.86827240e+00  1.88128850e+00  5.44249300e-01  7.86827240e+00  1.88128850e+00
  5.44249300e-01  1.68714400e-01  1.68714400e-01  8.00000000e-01  4.38000000e-02
  4.38000000e-02  3.04752490e+03  4.57369510e+02  1.03948690e+02  2.92101550e+01
  9.28666300e+00  3.16392700e+00  7.86827240e+00  1.88128850e+00  5.44249300e-01
  7.86827240e+00  1.88128850e+00  5.44249300e-01  1.68714400e-01  1.68714400e-01
  8.00000000e-01  4.38000000e-02  4.38000000e-02  3.04752490e+03  4.57369510e+02
  1.03948690e+02  2.92101550e+01  9.28666300e+00  3.16392700e+00  7.86827240e+00
  1.88128850e+00  5.44249300e-01  7.86827240e+00  1.88128850e+00  5.44249300e-01
  1.68714400e-01  1.68714400e-01  8.00000000e-01  4.38000000e-02  4.38000000e-02
  3.04752490e+03  4.57369510e+02  1.03948690e+02  2.92101550e+01  9.28666300e+00
  3.16392700e+00  7.86827240e+00  1.88128850e+00  5.44249300e-01  7.86827240e+00
  1.88128850e+00  5.44249300e-01  1.68714400e-01  1.68714400e-01  8.00000000e-01
  4.38000000e-02  4.38000000e-02  3.04752490e+03  4.57369510e+02  1.03948690e+02
  2.92101550e+01  9.28666300e+00  3.16392700e+00  7.86827240e+00  1.88128850e+00
  5.44249300e-01  7.86827240e+00  1.88128850e+00  5.44249300e-01  1.68714400e-01
  1.68714400e-01  8.00000000e-01  4.38000000e-02  4.38000000e-02  1.87311370e+01
  2.82539370e+00  6.40121700e-01  1.61277800e-01  1.87311370e+01  2.82539370e+00
  6.40121700e-01  1.61277800e-01  1.87311370e+01  2.82539370e+00  6.40121700e-01
  1.61277800e-01  1.87311370e+01  2.82539370e+00  6.40121700e-01  1.61277800e-01
  4.17351100e+03  6.27457900e+02  1.42902100e+02  4.02343300e+01  1.28202100e+01
  4.39043700e+00  1.16263580e+01  2.71628000e+00  7.72218000e-01  1.16263580e+01
  2.71628000e+00  7.72218000e-01  2.12031300e-01  2.12031300e-01  8.00000000e-01
  6.39000000e-02  6.39000000e-02  3.04752490e+03  4.57369510e+02  1.03948690e+02
  2.92101550e+01  9.28666300e+00  3.16392700e+00  7.86827240e+00  1.88128850e+00
  5.44249300e-01  7.86827240e+00  1.88128850e+00  5.44249300e-01  1.68714400e-01
  1.68714400e-01  8.00000000e-01  4.38000000e-02  4.38000000e-02  1.87311370e+01
  2.82539370e+00  6.40121700e-01  1.61277800e-01  1.87311370e+01  2.82539370e+00
  6.40121700e-01  1.61277800e-01  1.87311370e+01  2.82539370e+00  6.40121700e-01
  1.61277800e-01  3.04752490e+03  4.57369510e+02  1.03948690e+02  2.92101550e+01
  9.28666300e+00  3.16392700e+00  7.86827240e+00  1.88128850e+00  5.44249300e-01
  7.86827240e+00  1.88128850e+00  5.44249300e-01  1.68714400e-01  1.68714400e-01
  8.00000000e-01  4.38000000e-02  4.38000000e-02  3.04752490e+03  4.57369510e+02
  1.03948690e+02  2.92101550e+01  9.28666300e+00  3.16392700e+00  7.86827240e+00
  1.88128850e+00  5.44249300e-01  7.86827240e+00  1.88128850e+00  5.44249300e-01
  1.68714400e-01  1.68714400e-01  8.00000000e-01  4.38000000e-02  4.38000000e-02
  3.04752490e+03  4.57369510e+02  1.03948690e+02  2.92101550e+01  9.28666300e+00
  3.16392700e+00  7.86827240e+00  1.88128850e+00  5.44249300e-01  7.86827240e+00
  1.88128850e+00  5.44249300e-01  1.68714400e-01  1.68714400e-01  8.00000000e-01
  4.38000000e-02  4.38000000e-02  3.04752490e+03  4.57369510e+02  1.03948690e+02
  2.92101550e+01  9.28666300e+00  3.16392700e+00  7.86827240e+00  1.88128850e+00
  5.44249300e-01  7.86827240e+00  1.88128850e+00  5.44249300e-01  1.68714400e-01
  1.68714400e-01  8.00000000e-01  4.38000000e-02  4.38000000e-02  3.04752490e+03
  4.57369510e+02  1.03948690e+02  2.92101550e+01  9.28666300e+00  3.16392700e+00
  7.86827240e+00  1.88128850e+00  5.44249300e-01  7.86827240e+00  1.88128850e+00
  5.44249300e-01  1.68714400e-01  1.68714400e-01  8.00000000e-01  4.38000000e-02
  4.38000000e-02  3.04752490e+03  4.57369510e+02  1.03948690e+02  2.92101550e+01
  9.28666300e+00  3.16392700e+00  7.86827240e+00  1.88128850e+00  5.44249300e-01
  7.86827240e+00  1.88128850e+00  5.44249300e-01  1.68714400e-01  1.68714400e-01
  8.00000000e-01  4.38000000e-02  4.38000000e-02  1.87311370e+01  2.82539370e+00
  6.40121700e-01  1.61277800e-01  1.87311370e+01  2.82539370e+00  6.40121700e-01
  1.61277800e-01  1.87311370e+01  2.82539370e+00  6.40121700e-01  1.61277800e-01
  1.87311370e+01  2.82539370e+00  6.40121700e-01  1.61277800e-01  2.51801000e+04
  3.78035000e+03  8.60474000e+02  2.42145000e+02  7.73349000e+01  2.62470000e+01
  4.91765000e+02  1.16984000e+02  3.74153000e+01  1.37834000e+01  5.45215000e+00
  2.22588000e+00  4.91765000e+02  1.16984000e+02  3.74153000e+01  1.37834000e+01
  5.45215000e+00  2.22588000e+00  3.18649000e+00  1.14427000e+00  4.20377000e-01
  3.18649000e+00  1.14427000e+00  4.20377000e-01  1.42657000e-01  1.42657000e-01
  7.50000000e-01  4.83000000e-02  4.83000000e-02  1.87311370e+01  2.82539370e+00
  6.40121700e-01  1.61277800e-01  1.87311370e+01  2.82539370e+00  6.40121700e-01
  1.61277800e-01  1.87311370e+01  2.82539370e+00  6.40121700e-01  1.61277800e-01
  1.87311370e+01  2.82539370e+00  6.40121700e-01  1.61277800e-01  1.87311370e+01
  2.82539370e+00  6.40121700e-01  1.61277800e-01
Contraction coefficients                   R   N=         348
  1.83109981e-03  1.39500985e-02  6.84450927e-02  2.32714275e-01  4.70192950e-01
  3.58520862e-01 -1.10777504e-01 -1.48026305e-01  1.13076704e+00  7.08742995e-02
  3.39752798e-01  7.27158595e-01  1.00000000e+00  1.00000000e+00  1.00000000e+00
  1.00000000e+00  1.00000000e+00  1.83470016e-03  1.40373012e-02  6.88426061e-02
  2.32184421e-01  4.67941342e-01  3.62312032e-01 -1.19332409e-01 -1.60854212e-01
  1.14345648e+00  6.89990956e-02  3.16423980e-01  7.44308252e-01  1.00000000e+00
  1.00000000e+00  1.00000000e+00  1.00000000e+00  1.00000000e+00  1.83470016e-03
  1.40373012e-02  6.88426061e-02  2.32184421e-01  4.67941342e-01  3.62312032e-01
 -1.19332409e-01 -1.60854212e-01  1.14345648e+00  6.89990956e-02  3.16423980e-01
  7.44308252e-01  1.00000000e+00  1.00000000e+00  1.00000000e+00  1.00000000e+00
  1.00000000e+00  1.83470016e-03  1.40373012e-02  6.88426061e-02  2.32184421e-01
  4.67941342e-01  3.62312032e-01 -1.19332409e-01 -1.60854212e-01  1.14345648e+00
  6.89990956e-02  3.16423980e-01  7.44308252e-01  1.00000000e+00  1.00000000e+00
  1.00000000e+00  1.00000000e+00  1.00000000e+00  1.83470016e-03  1.40373012e-02
  6.88426061e-02  2.32184421e-01  4.67941342e-01  3.62312032e-01 -1.19332409e-01
 -1.60854212e-01  1.14345648e+00  6.89990956e-02  3.16423980e-01  7.44308252e-01
  1.00000000e+00  1.00000000e+00  1.00000000e+00  1.00000000e+00  1.00000000e+00
  1.83470016e-03  1.40373012e-02  6.88426061e-02  2.32184421e-01  4.67941342e-01
  3.62312032e-01 -1.19332409e-01 -1.60854212e-01  1.14345648e+00  6.89990956e-02
  3.16423980e-01  7.44308252e-01  1.00000000e+00  1.00000000e+00  1.00000000e+00
  1.00000000e+00  1.00000000e+00  1.83470016e-03  1.40373012e-02  6.88426061e-02
  2.32184421e-01  4.67941342e-01  3.62312032e-01 -1.19332409e-01 -1.60854212e-01
  1.14345648e+00  6.89990956e-02  3.16423980e-01  7.44308252e-01  1.00000000e+00
  1.00000000e+00  1.00000000e+00  1.00000000e+00  1.00000000e+00  3.34945995e-02
  2.34726947e-01  8.13757318e-01  1.00000000e+00  3.34945995e-02  2.34726947e-01
  8.13757318e-01  1.00000000e+00  3.34945995e-02  2.34726947e-01  8.13757318e-01
  1.00000000e+00  3.34945995e-02  2.34726947e-01  8.13757318e-01  1.00000000e+00
  1.83479944e-03  1.39949958e-02  6.85869792e-02  2.32240930e-01  4.69069858e-01
  3.60454891e-01 -1.14961023e-01 -1.69118034e-01  1.14585223e+00  6.75800232e-02
  3.23907111e-01  7.40895255e-01  1.00000000e+00  1.00000000e+00  1.00000000e+00
  1.00000000e+00  1.00000000e+00  1.83470016e-03  1.40373012e-02  6.88426061e-02
  2.32184421e-01  4.67941342e-01  3.62312032e-01 -1.19332409e-01 -1.60854212e-01
  1.14345648e+00  6.89990956e-02  3.16423980e-01  7.44308252e-01  1.00000000e+00
  1.00000000e+00  1.00000000e+00  1.00000000e+00  1.00000000e+00  3.34945995e-02
  2.34726947e-01  8.13757318e-01  1.00000000e+00  3.34945995e-02  2.34726947e-01
  8.13757318e-01  1.00000000e+00  3.34945995e-02  2.34726947e-01  8.13757318e-01
  1.00000000e+00  1.83470016e-03  1.40373012e-02  6.88426061e-02  2.32184421e-01
  4.67941342e-01  3.62312032e-01 -1.19332409e-01 -1.60854212e-01  1.14345648e+00
  6.89990956e-02  3.16423980e-01  7.44308252e-01  1.00000000e+00  1.00000000e+00
  1.00000000e+00  1.00000000e+00  1.00000000e+00  1.83470016e-03  1.40373012e-02
  6.88426061e-02  2.32184421e-01  4.67941342e-01  3.62312032e-01 -1.19332409e-01
 -1.60854212e-01  1.14345648e+00  6.89990956e-02  3.16423980e-01  7.44308252e-01
  1.00000000e+00  1.00000000e+00  1.00000000e+00  1.00000000e+00  1.00000000e+00
  1.83470016e-03  1.40373012e-02  6.88426061e-02  2.32184421e-01  4.67941342e-01
  3.62312032e-01 -1.19332409e-01 -1.60854212e-01  1.14345648e+00  6.89990956e-02
  3.16423980e-01  7.44308252e-01  1.00000000e+00  1.00000000e+00  1.00000000e+00
  1.00000000e+00  1.00000000e+00  1.83470016e-03  1.40373012e-02  6.88426061e-02
  2.32184421e-01  4.67941342e-01  3.62312032e-01 -1.19332409e-01 -1.60854212e-01
  1.14345648e+00  6.89990956e-02  3.16423980e-01  7.44308252e-01  1.00000000e+00
  1.00000000e+00  1.00000000e+00  1.00000000e+00  1.00000000e+00  1.83470016e-03
  1.40373012e-02  6.88426061e-02  2.32184421e-01  4.67941342e-01  3.62312032e-01
 -1.19332409e-01 -1.60854212e-01  1.14345648e+00  6.89990956e-02  3.16423980e-01
  7.44308252e-01  1.00000000e+00  1.00000000e+00  1.00000000e+00  1.00000000e+00
  1.00000000e+00  1.83470016e-03  1.40373012e-02  6.88426061e-02  2.32184421e-01
  4.67941342e-01  3.62312032e-01 -1.19332409e-01 -1.60854212e-01  1.14345648e+00
  6.89990956e-02  3.16423980e-01  7.44308252e-01  1.00000000e+00  1.00000000e+00
  1.00000000e+00  1.00000000e+00  1.00000000e+00  3.34945995e-02  2.34726947e-01
  8.13757318e-01  1.00000000e+00  3.34945995e-02  2.34726947e-01  8.13757318e-01
  1.00000000e+00  3.34945995e-02  2.34726947e-01  8.13757318e-01  1.00000000e+00
  3.34945995e-02  2.34726947e-01  8.13757318e-01  1.00000000e+00  1.83300031e-03
  1.40340024e-02  6.90970118e-02  2.37452040e-01  4.83034082e-01  3.39856058e-01
 -2.29740199e-03 -3.07140266e-02 -1.12528097e-01  4.50160390e-02  5.89353510e-01
  4.65206403e-01  3.98940055e-03  3.03180042e-02  1.29880018e-01  3.27951045e-01
  4.53527062e-01  2.52154035e-01 -2.51831288e-01  6.15893150e-02  1.06018542e+00
 -1.42990127e-02  3.23572288e-01  7.43507661e-01  1.00000000e+00  1.00000000e+00
  1.00000000e+00  1.00000000e+00  1.00000000e+00  3.34945995e-02  2.34726947e-01
  8.13757318e-01  1.00000000e+00  3.34945995e-02  2.34726947e-01  8.13757318e-01
  1.00000000e+00  3.34945995e-02  2.34726947e-01  8.13757318e-01  1.00000000e+00
  3.34945995e-02  2.34726947e-01  8.13757318e-01  1.00000000e+00  3.34945995e-02
  2.34726947e-01  8.13757318e-01  1.00000000e+00
Coordinates of each shell                  R   N=         486
  2.68257390e+00 -2.71074880e+00 -3.85111727e+00  2.68257390e+00 -2.71074880e+00
 -3.85111727e+00  2.68257390e+00 -2.71074880e+00 -3.85111727e+00  2.68257390e+00
 -2.71074880e+00 -3.85111727e+00  2.68257390e+00 -2.71074880e+00 -3.85111727e+00
  2.68257390e+00 -2.71074880e+00 -3.85111727e+00  2.68257390e+00 -2.71074880e+00
 -3.85111727e+00  2.68257390e+00 -2.71074880e+00 -3.85111727e+00 -7.09025139e-01
 -1.85248484e-01 -2.08630314e+00 -7.09025139e-01 -1.85248484e-01 -2.08630314e+00
 -7.09025139e-01 -1.85248484e-01 -2.08630314e+00 -7.09025139e-01 -1.85248484e-01
 -2.08630314e+00 -7.09025139e-01 -1.85248484e-01 -2.08630314e+00 -7.09025139e-01
 -1.85248484e-01 -2.08630314e+00 -7.09025139e-01 -1.85248484e-01 -2.08630314e+00
 -7.09025139e-01 -1.85248484e-01 -2.08630314e+00  2.10945803e+00 -7.53923534e-01
 -2.78325998e+00  2.10945803e+00 -7.53923534e-01 -2.78325998e+00  2.10945803e+00
 -7.53923534e-01 -2.78325998e+00  2.10945803e+00 -7.53923534e-01 -2.78325998e+00
  2.10945803e+00 -7.53923534e-01 -2.78325998e+00  2.10945803e+00 -7.53923534e-01
 -2.78325998e+00  2.10945803e+00 -7.53923534e-01 -2.78325998e+00  2.10945803e+00
 -7.53923534e-01 -2.78325998e+00  3.99627803e+00  1.43171292e+00 -2.61091434e+00
  3.99627803e+00  1.43171292e+00 -2.61091434e+00  3.99627803e+00  1.43171292e+00
 -2.61091434e+00  3.99627803e+00  1.43171292e+00 -2.61091434e+00  3.99627803e+00
  1.43171292e+00 -2.61091434e+00  3.99627803e+00  1.43171292e+00 -2.61091434e+00
  3.99627803e+00  1.43171292e+00 -2.61091434e+00  3.99627803e+00  1.43171292e+00
 -2.61091434e+00  2.88418933e+00  3.87233591e+00 -1.51984394e+00  2.88418933e+00
  3.87233591e+00 -1.51984394e+00  2.88418933e+00  3.87233591e+00 -1.51984394e+00
  2.88418933e+00  3.87233591e+00 -1.51984394e+00  2.88418933e+00  3.87233591e+00
 -1.51984394e+00  2.88418933e+00  3.87233591e+00 -1.51984394e+00  2.88418933e+00
  3.87233591e+00 -1.51984394e+00  2.88418933e+00  3.87233591e+00 -1.51984394e+00
  3.60162066e-01  4.59021999e+00 -2.80820125e+00  3.60162066e-01  4.59021999e+00
 -2.80820125e+00  3.60162066e-01  4.59021999e+00 -2.80820125e+00  3.60162066e-01
  4.59021999e+00 -2.80820125e+00  3.60162066e-01  4.59021999e+00 -2.80820125e+00
  3.60162066e-01  4.59021999e+00 -2.80820125e+00  3.60162066e-01  4.59021999e+00
 -2.80820125e+00  3.60162066e-01  4.59021999e+00 -2.80820125e+00 -1.16083699e+00
  2.26038911e+00 -3.69660001e+00 -1.16083699e+00  2.26038911e+00 -3.69660001e+00
 -1.16083699e+00  2.26038911e+00 -3.69660001e+00 -1.16083699e+00  2.26038911e+00
 -3.69660001e+00 -1.16083699e+00  2.26038911e+00 -3.69660001e+00 -1.16083699e+00
  2.26038911e+00 -3.69660001e+00 -1.16083699e+00  2.26038911e+00 -3.69660001e+00
 -1.16083699e+00  2.26038911e+00 -3.69660001e+00  7.18699190e-01  5.80281933e+00
 -4.45186165e+00  7.18699190e-01  5.80281933e+00 -4.45186165e+00 -7.74720907e-01
  5.71685318e+00 -1.49137002e+00 -7.74720907e-01  5.71685318e+00 -1.49137002e+00
 -3.18680949e+00  2.66090863e+00 -3.75888931e+00 -3.18680949e+00  2.66090863e+00
 -3.75888931e+00 -6.35752460e-01  1.78276944e+00 -5.64878794e+00 -6.35752460e-01
  1.78276944e+00 -5.64878794e+00 -2.43846719e+00 -2.13197188e+00 -3.05015787e+00
 -2.43846719e+00 -2.13197188e+00 -3.05015787e+00 -2.43846719e+00 -2.13197188e+00
 -3.05015787e+00 -2.43846719e+00 -2.13197188e+00 -3.05015787e+00 -2.43846719e+00
 -2.13197188e+00 -3.05015787e+00 -2.43846719e+00 -2.13197188e+00 -3.05015787e+00
 -2.43846719e+00 -2.13197188e+00 -3.05015787e+00 -2.43846719e+00 -2.13197188e+00
 -3.05015787e+00 -2.50242576e+00 -4.55406272e+00 -1.68822517e+00 -2.50242576e+00
 -4.55406272e+00 -1.68822517e+00 -2.50242576e+00 -4.55406272e+00 -1.68822517e+00
 -2.50242576e+00 -4.55406272e+00 -1.68822517e+00 -2.50242576e+00 -4.55406272e+00
 -1.68822517e+00 -2.50242576e+00 -4.55406272e+00 -1.68822517e+00 -2.50242576e+00
 -4.55406272e+00 -1.68822517e+00 -2.50242576e+00 -4.55406272e+00 -1.68822517e+00
 -3.34902039e+00 -4.28391450e+00  1.79043023e-01 -3.34902039e+00 -4.28391450e+00
  1.79043023e-01 -6.44198396e-01 -5.45032823e+00 -1.46500075e+00 -6.44198396e-01
 -5.45032823e+00 -1.46500075e+00 -3.73059203e+00 -5.83793576e+00 -2.74890681e+00
 -3.73059203e+00 -5.83793576e+00 -2.74890681e+00 -1.35483939e+00  2.81607357e-01
  7.19157561e-01 -1.35483939e+00  2.81607357e-01  7.19157561e-01 -1.35483939e+00
  2.81607357e-01  7.19157561e-01 -1.35483939e+00  2.81607357e-01  7.19157561e-01
 -1.35483939e+00  2.81607357e-01  7.19157561e-01 -1.35483939e+00  2.81607357e-01
  7.19157561e-01 -1.35483939e+00  2.81607357e-01  7.19157561e-01 -1.35483939e+00
  2.81607357e-01  7.19157561e-01 -3.68380731e+00  1.46234831e+00  1.23482725e+00
 -3.68380731e+00  1.46234831e+00  1.23482725e+00 -3.68380731e+00  1.46234831e+00
  1.23482725e+00 -3.68380731e+00  1.46234831e+00  1.23482725e+00 -3.68380731e+00
  1.46234831e+00  1.23482725e+00 -3.68380731e+00  1.46234831e+00  1.23482725e+00
 -3.68380731e+00  1.46234831e+00  1.23482725e+00 -3.68380731e+00  1.46234831e+00
  1.23482725e+00 -4.53302471e+00  1.93239991e+00  3.68014137e+00 -4.53302471e+00
  1.93239991e+00  3.68014137e+00 -4.53302471e+00  1.93239991e+00  3.68014137e+00
 -4.53302471e+00  1.93239991e+00  3.68014137e+00 -4.53302471e+00  1.93239991e+00
  3.68014137e+00 -4.53302471e+00  1.93239991e+00  3.68014137e+00 -4.53302471e+00
  1.93239991e+00  3.68014137e+00 -4.53302471e+00  1.93239991e+00  3.68014137e+00
 -3.05204113e+00  1.20921463e+00  5.74142037e+00 -3.05204113e+00  1.20921463e+00
  5.74142037e+00 -3.05204113e+00  1.20921463e+00  5.74142037e+00 -3.05204113e+00
  1.20921463e+00  5.74142037e+00 -3.05204113e+00  1.20921463e+00  5.74142037e+00
 -3.05204113e+00  1.20921463e+00  5.74142037e+00 -3.05204113e+00  1.20921463e+00
  5.74142037e+00 -3.05204113e+00  1.20921463e+00  5.74142037e+00 -7.61245370e-01
 -9.02877347e-03  5.31295817e+00 -7.61245370e-01 -9.02877347e-03  5.31295817e+00
 -7.61245370e-01 -9.02877347e-03  5.31295817e+00 -7.61245370e-01 -9.02877347e-03
  5.31295817e+00 -7.61245370e-01 -9.02877347e-03  5.31295817e+00 -7.61245370e-01
 -9.02877347e-03  5.31295817e+00 -7.61245370e-01 -9.02877347e-03  5.31295817e+00
 -7.61245370e-01 -9.02877347e-03  5.31295817e+00  5.10188164e-02 -4.78739564e-01
  2.83909769e+00  5.10188164e-02 -4.78739564e-01  2.83909769e+00  5.10188164e-02
 -4.78739564e-01  2.83909769e+00  5.10188164e-02 -4.78739564e-01  2.83909769e+00
  5.10188164e-02 -4.78739564e-01  2.83909769e+00  5.10188164e-02 -4.78739564e-01
  2.83909769e+00  5.10188164e-02 -4.78739564e-01  2.83909769e+00  5.10188164e-02
 -4.78739564e-01  2.83909769e+00 -4.87924080e+00  1.98622568e+00 -3.44753963e-01
 -4.87924080e+00  1.98622568e+00 -3.44753963e-01 -6.34646412e+00  2.85086207e+00
  3.97018820e+00 -6.34646412e+00  2.85086207e+00  3.97018820e+00 -3.67610257e+00
  1.56642667e+00  7.66476939e+00 -3.67610257e+00  1.56642667e+00  7.66476939e+00
  4.09313031e-01 -6.25319366e-01  6.87987820e+00  4.09313031e-01 -6.25319366e-01
  6.87987820e+00  2.93073124e+00 -2.14058516e+00  2.56707537e+00  2.93073124e+00
 -2.14058516e+00  2.56707537e+00  2.93073124e+00 -2.14058516e+00  2.56707537e+00
  2.93073124e+00 -2.14058516e+00  2.56707537e+00  2.93073124e+00 -2.14058516e+00
  2.56707537e+00  2.93073124e+00 -2.14058516e+00  2.56707537e+00  2.93073124e+00
 -2.14058516e+00  2.56707537e+00  2.93073124e+00 -2.14058516e+00  2.56707537e+00
  2.93073124e+00 -2.14058516e+00  2.56707537e+00  2.93073124e+00 -2.14058516e+00
  2.56707537e+00 -1.94237201e+00 -2.48990624e+00 -4.87628812e+00 -1.94237201e+00
 -2.48990624e+00 -4.87628812e+00  4.68410964e+00  1.72747278e+00 -4.54904346e+00
  4.68410964e+00  1.72747278e+00 -4.54904346e+00  5.63248002e+00  7.83112039e-01
 -1.52084648e+00  5.63248002e+00  7.83112039e-01 -1.52084648e+00  4.25380392e+00
  5.41517873e+00 -1.71545595e+00  4.25380392e+00  5.41517873e+00 -1.71545595e+00