Generated by Psi4
     FORCE                           RHF                       TESTBAS
Number of atoms                            I               34
Charge                                     I                0
Multiplicity                               I                1
Number of electrons                        I              122
Number of alpha electrons                  I               61
Number of beta electrons                   I               61
Number of basis functions                  I              340
Number of independent functions            I              340
Atomic numbers                             I   N=          34
           8           6           6           7           6           7
           6           8           8           1           1           6
           6           6           6           1           1           1
           1           1           1           1           1           6
           1           6           1           1           6           1
           1           1           1           1
Nuclear charges                            R   N=          34
  8.00000000e+00  6.00000000e+00  6.00000000e+00  7.00000000e+00  6.00000000e+00
  7.00000000e+00  6.00000000e+00  8.00000000e+00  8.00000000e+00  1.00000000e+00
  1.00000000e+00  6.00000000e+00  6.00000000e+00  6.00000000e+00  6.00000000e+00
  1.00000000e+00  1.00000000e+00  1.00000000e+00  1.00000000e+00  1.00000000e+00
  1.00000000e+00  1.00000000e+00  1.00000000e+00  6.00000000e+00  1.00000000e+00
  6.00000000e+00  1.00000000e+00  1.00000000e+00  6.00000000e+00  1.00000000e+00
  1.00000000e+00  1.00000000e+00  1.00000000e+00  1.00000000e+00
Current cartesian coordinates              R   N=         102
  2.82671788e+00  1.90341623e+00  2.56692267e+00 -7.20761734e-01  6.23403216e-01
 -1.95207182e-02  2.01470338e+00  1.43889117e+00  4.61583732e-01  3.61932951e+00
  1.63302182e+00 -1.61283345e+00  3.00028461e+00  1.40536073e+00 -4.15064295e+00
  4.85527535e-01  8.12130936e-01 -4.60190514e+00 -1.41147619e+00  4.11699549e-01
 -2.83121126e+00  4.53064456e+00  1.71008903e+00 -5.84012376e+00 -3.54308502e+00
 -9.89179600e-02 -3.53825992e+00 -9.60369812e-03  6.53332284e-01 -6.45006608e+00
  5.43207025e+00  2.15122230e+00 -1.24978624e+00 -1.19171420e+00 -2.10623969e+00
  1.14943323e+00  6.19362066e-01 -4.07330104e+00 -1.53560421e-03 -2.50411450e+00
  2.64423412e+00  1.17193707e+00 -2.41075162e+00  5.24694786e+00 -1.02789056e-01
 -1.97901390e+00  2.84877623e+00  3.15712658e+00 -4.43029692e+00  1.89182358e+00
  1.09058408e+00 -5.12028153e-01  6.07559325e+00 -2.58902755e-02 -3.68663634e+00
  6.55164704e+00  8.75206580e-01 -3.01059604e+00  5.16843923e+00 -2.08355226e+00
  2.56709911e+00 -3.78848534e+00  6.52151308e-01  6.20401631e-01 -4.02650384e+00
 -2.07224878e+00  5.65513742e-02 -5.98462625e+00  5.46936675e-01 -1.15621715e+00
 -2.18745820e+00  4.06459654e+00 -3.11657239e+00 -2.56753944e+00  5.28334864e-01
 -2.02073767e+00 -4.73338713e+00  5.17459876e+00 -2.41687235e+00 -7.23675904e-01
  4.81158062e+00  7.40367313e-01 -1.73145569e+00  4.76437989e+00 -2.29849583e+00
 -4.62949631e+00  8.05790965e+00 -6.72966998e-01 -6.23112703e+00  4.68620038e+00
 -3.83805164e+00 -5.28010673e+00  4.32594769e+00 -5.04119645e-01 -4.12116326e+00
  8.96451812e+00 -2.89396588e+00 -6.46198757e+00  8.82032748e+00 -3.70922853e+00
 -3.22011416e+00  8.62735858e+00
Integer atomic weights                     I   N=          34
          15          12          12          14          12          14
          12          15          15           1           1          12
          12          12          12           1           1           1
           1           1           1           1           1          12
           1          12           1           1          12           1
           1           1           1           1
Real atomic weights                        R   N=          34
  1.59949146e+01  1.20000000e+01  1.20000000e+01  1.40030740e+01  1.20000000e+01
  1.40030740e+01  1.20000000e+01  1.59949146e+01  1.59949146e+01  1.00782503e+00
  1.00782503e+00  1.20000000e+01  1.20000000e+01  1.20000000e+01  1.20000000e+01
  1.00782503e+00  1.00782503e+00  1.00782503e+00  1.00782503e+00  1.00782503e+00
  1.00782503e+00  1.00782503e+00  1.00782503e+00  1.20000000e+01  1.00782503e+00
  1.20000000e+01  1.00782503e+00  1.00782503e+00  1.20000000e+01  1.00782503e+00
  1.00782503e+00  1.00782503e+00  1.00782503e+00  1.00782503e+00
Number of primitive shells                 I              344
Number of contracted shells                I              164
Pure/Cartesian d shells                    I                1
Pure/Cartesian f shells                    I                1
Highest angular momentum                   I                2
Largest degree of contraction              I                6
Shell types                                I   N=         164
           0           0           1           0           1           2
           0           1           0           0           1           0
           1           2           0           1           0           0
           1           0           1           2           0           1
           0           0           1           0           1           2
           0           1           0           0           1           0
           1           2           0           1           0           0
           1           0           1           2           0           1
           0           0           1           0           1           2
           0           1           0           0           1           0
           1           2           0           1           0           0
           1           0           1           2           0           1
           0           0           0           0           0           0
           1           0           1           2           0           1
           0           0           1           0           1           2
           0           1           0           0           1           0
           1           2           0           1           0           0
           1           0           1           2           0           1
           0           0           0           0           0           0
           0           0           0           0           0           0
           0           0           0           0           0           0
           1           0           1           2           0           1
           0           0           0           0           1           0
           1           2           0           1           0           0
           0           0           0           0           1           0
           1           2           0           1           0           0
           0           0           0           0           0           0
           0           0
Number of primitives per shell             I   N=         164
           6           3           3           1           1           1
           1           1           6           3           3           1
           1           1           1           1           6           3
           3           1           1           1           1           1
           6           3           3           1           1           1
           1           1           6           3           3           1
           1           1           1           1           6           3
           3           1           1           1           1           1
           6           3           3           1           1           1
           1           1           6           3           3           1
           1           1           1           1           6           3
           3           1           1           1           1           1
           3           1           3           1           6           3
           3           1           1           1           1           1
           6           3           3           1           1           1
           1           1           6           3           3           1
           1           1           1           1           6           3
           3           1           1           1           1           1
           3           1           3           1           3           1
           3           1           3           1           3           1
           3           1           3           1           6           3
           3           1           1           1           1           1
           3           1           6           3           3           1
           1           1           1           1           3           1
           3           1           6           3           3           1
           1           1           1           1           3           1
           3           1           3           1           3           1
           3           1
Shell to atom map                          I   N=         164
           1           1           1           1           1           1
           1           1           2           2           2           2
           2           2           2           2           3           3
           3           3           3           3           3           3
           4           4           4           4           4           4
           4           4           5           5           5           5
           5           5           5           5           6           6
           6           6           6           6           6           6
           7           7           7           7           7           7
           7           7           8           8           8           8
           8           8           8           8           9           9
           9           9           9           9           9           9
          10          10          11          11          12          12
          12          12          12          12          12          12
          13          13          13          13          13          13
          13          13          14          14          14          14
          14          14          14          14          15          15
          15          15          15          15          15          15
          16          16          17          17          18          18
          19          19          20          20          21          21
          22          22          23          23          24          24
          24          24          24          24          24          24
          25          25          26          26          26          26
          26          26          26          26          27          27
          28          28          29          29          29          29
          29          29          29          29          30          30
          31          31          32          32          33          33
          34          34
Primitive exponents                        R   N=         344
  5.48467170e+03  8.25234950e+02  1.88046960e+02  5.29645000e+01  1.68975700e+01
  5.79963530e+00  1.55396160e+01  3.59993360e+00  1.01376180e+00  1.55396160e+01
  3.59993360e+00  1.01376180e+00  2.70005800e-01  2.70005800e-01  8.00000000e-01
  8.45000000e-02  8.45000000e-02  3.04752490e+03  4.57369510e+02  1.03948690e+02
  2.92101550e+01  9.28666300e+00  3.16392700e+00  7.86827240e+00  1.88128850e+00
  5.44249300e-01  7.86827240e+00  1.88128850e+00  5.44249300e-01  1.68714400e-01
  1.68714400e-01  8.00000000e-01  4.38000000e-02  4.38000000e-02  3.04752490e+03
  4.57369510e+02  1.03948690e+02  2.92101550e+01  9.28666300e+00  3.16392700e+00
  7.86827240e+00  1.88128850e+00  5.44249300e-01  7.86827240e+00  1.88128850e+00
  5.44249300e-01  1.68714400e-01  1.68714400e-01  8.00000000e-01  4.38000000e-02
  4.38000000e-02  4.17351100e+03  6.27457900e+02  1.42902100e+02  4.02343300e+01
  1.28202100e+01  4.39043700e+00  1.16263580e+01  2.71628000e+00  7.72218000e-01
  1.16263580e+01  2.71628000e+00  7.72218000e-01  2.12031300e-01  2.12031300e-01
  8.00000000e-01  6.39000000e-02  6.39000000e-02  3.04752490e+03  4.57369510e+02
  1.03948690e+02  2.92101550e+01  9.28666300e+00  3.16392700e+00  7.86827240e+00
  1.88128850e+00  5.44249300e-01  7.86827240e+00  1.88128850e+00  5.44249300e-01
  1.68714400e-01  1.68714400e-01  8.00000000e-01  4.38000000e-02  4.38000000e-02
  4.17351100e+03  6.27457900e+02  1.42902100e+02  4.02343300e+01  1.28202100e+01
  4.39043700e+00  1.16263580e+01  2.71628000e+00  7.72218000e-01  1.16263580e+01
  2.71628000e+00  7.72218000e-01  2.12031300e-01  2.12031300e-01  8.00000000e-01
  6.39000000e-02  6.39000000e-02  3.04752490e+03  4.57369510e+02  1.03948690e+02
  2.92101550e+01  9.28666300e+00  3.16392700e+00  7.86827240e+00  1.88128850e+00
  5.44249300e-01  7.86827240e+00  1.88128850e+00  5.44249300e-01  1.68714400e-01
  1.68714400e-01  8.00000000e-01  4.38000000e-02  4.38000000e-02  5.48467170e+03
  8.25234950e+02  1.88046960e+02  5.29645000e+01  1.68975700e+01  5.79963530e+00
  1.55396160e+01  3.59993360e+00  1.01376180e+00  1.55396160e+01  3.59993360e+00
  1.01376180e+00  2.70005800e-01  2.70005800e-01  8.00000000e-01  8.45000000e-02
  8.45000000e-02  5.48467170e+03  8.25234950e+02  1.88046960e+02  5.29645000e+01
  1.68975700e+01  5.79963530e+00  1.55396160e+01  3.59993360e+00  1.01376180e+00
  1.55396160e+01  3.59993360e+00  1.01376180e+00  2.70005800e-01  2.70005800e-01
  8.00000000e-01  8.45000000e-02  8.45000000e-02  1.87311370e+01  2.82539370e+00
  6.40121700e-01  1.61277800e-01  1.87311370e+01  2.82539370e+00  6.40121700e-01
  1.61277800e-01  3.04752490e+03  4.57369510e+02  1.03948690e+02  2.92101550e+01
  9.28666300e+00  3.16392700e+00  7.86827240e+00  1.88128850e+00  5.44249300e-01
  7.86827240e+00  1.88128850e+00  5.44249300e-01  1.68714400e-01  1.68714400e-01
  8.00000000e-01  4.38000000e-02  4.38000000e-02  3.04752490e+03  4.57369510e+02
  1.03948690e+02  2.92101550e+01  9.28666300e+00  3.16392700e+00  7.86827240e+00
  1.88128850e+00  5.44249300e-01  7.86827240e+00  1.88128850e+00  5.44249300e-01
  1.68714400e-01  1.68714400e-01  8.00000000e-01  4.38000000e-02  4.38000000e-02
  3.04752490e+03  4.57369510e+02  1.03948690e+02  2.92101550e+01  9.28666300e+00
  3.16392700e+00  7.86827240e+00  1.88128850e+00  5.44249300e-01  7.86827240e+00
  1.88128850e+00  5.44249300e-01  1.68714400e-01  1.68714400e-01  8.00000000e-01
  4.38000000e-02  4.38000000e-02  3.04752490e+03  4.57369510e+02  1.03948690e+02
  2.92101550e+01  9.28666300e+00  3.16392700e+00  7.86827240e+00  1.88128850e+00
  5.44249300e-01  7.86827240e+00  1.88128850e+00  5.44249300e-01  1.68714400e-01
  1.68714400e-01  8.00000000e-01  4.38000000e-02  4.38000000e-02  1.87311370e+01
  2.82539370e+00  6.40121700e-01  1.61277800e-01  1.87311370e+01  2.82539370e+00
  6.40121700e-01  1.61277800e-01  1.87311370e+01  2.82539370e+00  6.40121700e-01
  1.61277800e-01  1.87311370e+01  2.82539370e+00  6.40121700e-01  1.61277800e-01
  1.87311370e+01  2.82539370e+00  6.40121700e-01  1.61277800e-01  1.87311370e+01
  2.82539370e+00  6.40121700e-01  1.61277800e-01  1.87311370e+01  2.82539370e+00
  6.40121700e-01  1.61277800e-01  1.87311370e+01  2.82539370e+00  6.40121700e-01
  1.61277800e-01  3.04752490e+03  4.57369510e+02  1.03948690e+02  2.92101550e+01
  9.28666300e+00  3.16392700e+00  7.86827240e+00  1.88128850e+00  5.44249300e-01
  7.86827240e+00  1.88128850e+00  5.44249300e-01  1.68714400e-01  1.68714400e-01
  8.00000000e-01  4.38000000e-02  4.38000000e-02  1.87311370e+01  2.82539370e+00
  6.40121700e-01  1.61277800e-01  3.04752490e+03  4.57369510e+02  1.03948690e+02
  2.92101550e+01  9.28666300e+00  3.16392700e+00  7.86827240e+00  1.88128850e+00
  5.44249300e-01  7.86827240e+00  1.88128850e+00  5.44249300e-01  1.68714400e-01
  1.68714400e-01  8.00000000e-01  4.38000000e-02  4.38000000e-02  1.87311370e+01
  2.82539370e+00  6.40121700e-01  1.61277800e-01  1.87311370e+01  2.82539370e+00
  6.40121700e-01  1.61277800e-01  3.04752490e+03  4.57369510e+02  1.03948690e+02
  2.92101550e+01  9.28666300e+00  3.16392700e+00  7.86827240e+00  1.88128850e+00
  5.44249300e-01  7.86827240e+00  1.88128850e+00  5.44249300e-01  1.68714400e-01
  1.68714400e-01  8.00000000e-01  4.38000000e-02  4.38000000e-02  1.87311370e+01
  2.82539370e+00  6.40121700e-01  1.61277800e-01  1.87311370e+01  2.82539370e+00
  6.40121700e-01  1.61277800e-01  1.87311370e+01  2.82539370e+00  6.40121700e-01
  1.61277800e-01  1.87311370e+01  2.82539370e+00  6.40121700e-01  1.61277800e-01
  1.87311370e+01  2.82539370e+00  6.40121700e-01  1.61277800e-01
Contraction coefficients                   R   N=         344
  1.83109981e-03  1.39500985e-02  6.84450927e-02  2.32714275e-01  4.70192950e-01
  3.58520862e-01 -1.10777504e-01 -1.48026305e-01  1.13076704e+00  7.08742995e-02
  3.39752798e-01  7.27158595e-01  1.00000000e+00  1.00000000e+00  1.00000000e+00
  1.00000000e+00  1.00000000e+00  1.83470016e-03  1.40373012e-02  6.88426061e-02
  2.32184421e-01  4.67941342e-01  3.62312032e-01 -1.19332409e-01 -1.60854212e-01
  1.14345648e+00  6.89990956e-02  3.16423980e-01  7.44308252e-01  1.00000000e+00
  1.00000000e+00  1.00000000e+00  1.00000000e+00  1.00000000e+00  1.83470016e-03
  1.40373012e-02  6.88426061e-02  2.32184421e-01  4.67941342e-01  3.62312032e-01
 -1.19332409e-01 -1.60854212e-01  1.14345648e+00  6.89990956e-02  3.16423980e-01
  7.44308252e-01  1.00000000e+00  1.00000000e+00  1.00000000e+00  1.00000000e+00
  1.00000000e+00  1.83479944e-03  1.39949958e-02  6.85869792e-02  2.32240930e-01
  4.69069858e-01  3.60454891e-01 -1.14961023e-01 -1.69118034e-01  1.14585223e+00
  6.75800232e-02  3.23907111e-01  7.40895255e-01  1.00000000e+00  1.00000000e+00
  1.00000000e+00  1.00000000e+00  1.00000000e+00  1.83470016e-03  1.40373012e-02
  6.88426061e-02  2.32184421e-01  4.67941342e-01  3.62312032e-01 -1.19332409e-01
 -1.60854212e-01  1.14345648e+00  6.89990956e-02  3.16423980e-01  7.44308252e-01
  1.00000000e+00  1.00000000e+00  1.00000000e+00  1.00000000e+00  1.00000000e+00
  1.83479944e-03  1.39949958e-02  6.85869792e-02  2.32240930e-01  4.69069858e-01
  3.60454891e-01 -1.14961023e-01 -1.69118034e-01  1.14585223e+00  6.75800232e-02
  3.23907111e-01  7.40895255e-01  1.00000000e+00  1.00000000e+00  1.00000000e+00
  1.00000000e+00  1.00000000e+00  1.83470016e-03  1.40373012e-02  6.88426061e-02
  2.32184421e-01  4.67941342e-01  3.62312032e-01 -1.19332409e-01 -1.60854212e-01
  1.14345648e+00  6.89990956e-02  3.16423980e-01  7.44308252e-01  1.00000000e+00
  1.00000000e+00  1.00000000e+00  1.00000000e+00  1.00000000e+00  1.83109981e-03
  1.39500985e-02  6.84450927e-02  2.32714275e-01  4.70192950e-01  3.58520862e-01
 -1.10777504e-01 -1.48026305e-01  1.13076704e+00  7.08742995e-02  3.39752798e-01
  7.27158595e-01  1.00000000e+00  1.00000000e+00  1.00000000e+00  1.00000000e+00
  1.00000000e+00  1.83109981e-03  1.39500985e-02  6.84450927e-02  2.32714275e-01
  4.70192950e-01  3.58520862e-01 -1.10777504e-01 -1.48026305e-01  1.13076704e+00
  7.08742995e-02  3.39752798e-01  7.27158595e-01  1.00000000e+00  1.00000000e+00
  1.00000000e+00  1.00000000e+00  1.00000000e+00  3.34945995e-02  2.34726947e-01
  8.13757318e-01  1.00000000e+00  3.34945995e-02  2.34726947e-01  8.13757318e-01
  1.00000000e+00  1.83470016e-03  1.40373012e-02  6.88426061e-02  2.32184421e-01
  4.67941342e-01  3.62312032e-01 -1.19332409e-01 -1.60854212e-01  1.14345648e+00
  6.89990956e-02  3.16423980e-01  7.44308252e-01  1.00000000e+00  1.00000000e+00
  1.00000000e+00  1.00000000e+00  1.00000000e+00  1.83470016e-03  1.40373012e-02
  6.88426061e-02  2.32184421e-01  4.67941342e-01  3.62312032e-01 -1.19332409e-01
 -1.60854212e-01  1.14345648e+00  6.89990956e-02  3.16423980e-01  7.44308252e-01
  1.00000000e+00  1.00000000e+00  1.00000000e+00  1.00000000e+00  1.00000000e+00
  1.83470016e-03  1.40373012e-02  6.88426061e-02  2.32184421e-01  4.67941342e-01
  3.62312032e-01 -1.19332409e-01 -1.60854212e-01  1.14345648e+00  6.89990956e-02
  3.16423980e-01  7.44308252e-01  1.00000000e+00  1.00000000e+00  1.00000000e+00
  1.00000000e+00  1.00000000e+00  1.83470016e-03  1.40373012e-02  6.88426061e-02
  2.32184421e-01  4.67941342e-01  3.62312032e-01 -1.19332409e-01 -1.60854212e-01
  1.14345648e+00  6.89990956e-02  3.16423980e-01  7.44308252e-01  1.00000000e+00
  1.00000000e+00  1.00000000e+00  1.00000000e+00  1.00000000e+00  3.34945995e-02
  2.34726947e-01  8.13757318e-01  1.00000000e+00  3.34945995e-02  2.34726947e-01
  8.13757318e-01  1.00000000e+00  3.34945995e-02  2.34726947e-01  8.13757318e-01
  1.00000000e+00  3.34945995e-02  2.34726947e-01  8.13757318e-01  1.00000000e+00
  3.34945995e-02  2.34726947e-01  8.13757318e-01  1.00000000e+00  3.34945995e-02
  2.34726947e-01  8.13757318e-01  1.00000000e+00  3.34945995e-02  2.34726947e-01
  8.13757318e-01  1.00000000e+00  3.34945995e-02  2.34726947e-01  8.13757318e-01
  1.00000000e+00  1.83470016e-03  1.40373012e-02  6.88426061e-02  2.32184421e-01
  4.67941342e-01  3.62312032e-01 -1.19332409e-01 -1.60854212e-01  1.14345648e+00
  6.89990956e-02  3.16423980e-01  7.44308252e-01  1.00000000e+00  1.00000000e+00
  1.00000000e+00  1.00000000e+00  1.00000000e+00  3.34945995e-02  2.34726947e-01
  8.13757318e-01  1.00000000e+00  1.83470016e-03  1.40373012e-02  6.88426061e-02
  2.32184421e-01  4.67941342e-01  3.62312032e-01 -1.19332409e-01 -1.60854212e-01
  1.14345648e+00  6.89990956e-02  3.16423980e-01  7.44308252e-01  1.00000000e+00
  1.00000000e+00  1.00000000e+00  1.00000000e+00  1.00000000e+00  3.34945995e-02
  2.34726947e-01  8.13757318e-01  1.00000000e+00  3.34945995e-02  2.34726947e-01
  8.13757318e-01  1.00000000e+00  1.83470016e-03  1.40373012e-02  6.88426061e-02
  2.32184421e-01  4.67941342e-01  3.62312032e-01 -1.19332409e-01 -1.60854212e-01
  1.14345648e+00  6.89990956e-02  3.16423980e-01  7.44308252e-01  1.00000000e+00
  1.00000000e+00  1.00000000e+00  1.00000000e+00  1.00000000e+00  3.34945995e-02
  2.34726947e-01  8.13757318e-01  1.00000000e+00  3.34945995e-02  2.34726947e-01
  8.13757318e-01  1.00000000e+00  3.34945995e-02  2.34726947e-01  8.13757318e-01
  1.00000000e+00  3.34945995e-02  2.34726947e-01  8.13757318e-01  1.00000000e+00
  3.34945995e-02  2.34726947e-01  8.13757318e-01  1.00000000e+00
Coordinates of each shell                  R   N=         492
  2.82671788e+00  1.90341623e+00  2.56692267e+00  2.82671788e+00  1.90341623e+00
  2.56692267e+00  2.82671788e+00  1.90341623e+00  2.56692267e+00  2.82671788e+00
  1.90341623e+00  2.56692267e+00  2.82671788e+00  1.90341623e+00  2.56692267e+00
  2.82671788e+00  1.90341623e+00  2.56692267e+00  2.82671788e+00  1.90341623e+00
  2.56692267e+00  2.82671788e+00  1.90341623e+00  2.56692267e+00 -7.20761734e-01
  6.23403216e-01 -1.95207182e-02 -7.20761734e-01  6.23403216e-01 -1.95207182e-02
 -7.20761734e-01  6.23403216e-01 -1.95207182e-02 -7.20761734e-01  6.23403216e-01
 -1.95207182e-02 -7.20761734e-01  6.23403216e-01 -1.95207182e-02 -7.20761734e-01
  6.23403216e-01 -1.95207182e-02 -7.20761734e-01  6.23403216e-01 -1.95207182e-02
 -7.20761734e-01  6.23403216e-01 -1.95207182e-02  2.01470338e+00  1.43889117e+00
  4.61583732e-01  2.01470338e+00  1.43889117e+00  4.61583732e-01  2.01470338e+00
  1.43889117e+00  4.61583732e-01  2.01470338e+00  1.43889117e+00  4.61583732e-01
  2.01470338e+00  1.43889117e+00  4.61583732e-01  2.01470338e+00  1.43889117e+00
  4.61583732e-01  2.01470338e+00  1.43889117e+00  4.61583732e-01  2.01470338e+00
  1.43889117e+00  4.61583732e-01  3.61932951e+00  1.63302182e+00 -1.61283345e+00
  3.61932951e+00  1.63302182e+00 -1.61283345e+00  3.61932951e+00  1.63302182e+00
 -1.61283345e+00  3.61932951e+00  1.63302182e+00 -1.61283345e+00  3.61932951e+00
  1.63302182e+00 -1.61283345e+00  3.61932951e+00  1.63302182e+00 -1.61283345e+00
  3.61932951e+00  1.63302182e+00 -1.61283345e+00  3.61932951e+00  1.63302182e+00
 -1.61283345e+00  3.00028461e+00  1.40536073e+00 -4.15064295e+00  3.00028461e+00
  1.40536073e+00 -4.15064295e+00  3.00028461e+00  1.40536073e+00 -4.15064295e+00
  3.00028461e+00  1.40536073e+00 -4.15064295e+00  3.00028461e+00  1.40536073e+00
 -4.15064295e+00  3.00028461e+00  1.40536073e+00 -4.15064295e+00  3.00028461e+00
  1.40536073e+00 -4.15064295e+00  3.00028461e+00  1.40536073e+00 -4.15064295e+00
  4.85527535e-01  8.12130936e-01 -4.60190514e+00  4.85527535e-01  8.12130936e-01
 -4.60190514e+00  4.85527535e-01  8.12130936e-01 -4.60190514e+00  4.85527535e-01
  8.12130936e-01 -4.60190514e+00  4.85527535e-01  8.12130936e-01 -4.60190514e+00
  4.85527535e-01  8.12130936e-01 -4.60190514e+00  4.85527535e-01  8.12130936e-01
 -4.60190514e+00  4.85527535e-01  8.12130936e-01 -4.60190514e+00 -1.41147619e+00
  4.11699549e-01 -2.83121126e+00 -1.41147619e+00  4.11699549e-01 -2.83121126e+00
 -1.41147619e+00  4.11699549e-01 -2.83121126e+00 -1.41147619e+00  4.11699549e-01
 -2.83121126e+00 -1.41147619e+00  4.11699549e-01 -2.83121126e+00 -1.41147619e+00
  4.11699549e-01 -2.83121126e+00 -1.41147619e+00  4.11699549e-01 -2.83121126e+00
 -1.41147619e+00  4.11699549e-01 -2.83121126e+00  4.53064456e+00  1.71008903e+00
 -5.84012376e+00  4.53064456e+00  1.71008903e+00 -5.84012376e+00  4.53064456e+00
  1.71008903e+00 -5.84012376e+00  4.53064456e+00  1.71008903e+00 -5.84012376e+00
  4.53064456e+00  1.71008903e+00 -5.84012376e+00  4.53064456e+00  1.71008903e+00
 -5.84012376e+00  4.53064456e+00  1.71008903e+00 -5.84012376e+00  4.53064456e+00
  1.71008903e+00 -5.84012376e+00 -3.54308502e+00 -9.89179600e-02 -3.53825992e+00
 -3.54308502e+00 -9.89179600e-02 -3.53825992e+00 -3.54308502e+00 -9.89179600e-02
 -3.53825992e+00 -3.54308502e+00 -9.89179600e-02 -3.53825992e+00 -3.54308502e+00
 -9.89179600e-02 -3.53825992e+00 -3.54308502e+00 -9.89179600e-02 -3.53825992e+00
 -3.54308502e+00 -9.89179600e-02 -3.53825992e+00 -3.54308502e+00 -9.89179600e-02
 -3.53825992e+00 -9.60369812e-03  6.53332284e-01 -6.45006608e+00 -9.60369812e-03
  6.53332284e-01 -6.45006608e+00  5.43207025e+00  2.15122230e+00 -1.24978624e+00
  5.43207025e+00  2.15122230e+00 -1.24978624e+00 -1.19171420e+00 -2.10623969e+00
  1.14943323e+00 -1.19171420e+00 -2.10623969e+00  1.14943323e+00 -1.19171420e+00
 -2.10623969e+00  1.14943323e+00 -1.19171420e+00 -2.10623969e+00  1.14943323e+00
 -1.19171420e+00 -2.10623969e+00  1.14943323e+00 -1.19171420e+00 -2.10623969e+00
  1.14943323e+00 -1.19171420e+00 -2.10623969e+00  1.14943323e+00 -1.19171420e+00
 -2.10623969e+00  1.14943323e+00  6.19362066e-01 -4.07330104e+00 -1.53560421e-03
  6.19362066e-01 -4.07330104e+00 -1.53560421e-03  6.19362066e-01 -4.07330104e+00
 -1.53560421e-03  6.19362066e-01 -4.07330104e+00 -1.53560421e-03  6.19362066e-01
 -4.07330104e+00 -1.53560421e-03  6.19362066e-01 -4.07330104e+00 -1.53560421e-03
  6.19362066e-01 -4.07330104e+00 -1.53560421e-03  6.19362066e-01 -4.07330104e+00
 -1.53560421e-03 -2.50411450e+00  2.64423412e+00  1.17193707e+00 -2.50411450e+00
  2.64423412e+00  1.17193707e+00 -2.50411450e+00  2.64423412e+00  1.17193707e+00
 -2.50411450e+00  2.64423412e+00  1.17193707e+00 -2.50411450e+00  2.64423412e+00
  1.17193707e+00 -2.50411450e+00  2.64423412e+00  1.17193707e+00 -2.50411450e+00
  2.64423412e+00  1.17193707e+00 -2.50411450e+00  2.64423412e+00  1.17193707e+00
 -2.41075162e+00  5.24694786e+00 -1.02789056e-01 -2.41075162e+00  5.24694786e+00
 -1.02789056e-01 -2.41075162e+00  5.24694786e+00 -1.02789056e-01 -2.41075162e+00
  5.24694786e+00 -1.02789056e-01 -2.41075162e+00  5.24694786e+00 -1.02789056e-01
 -2.41075162e+00  5.24694786e+00 -1.02789056e-01 -2.41075162e+00  5.24694786e+00
 -1.02789056e-01 -2.41075162e+00  5.24694786e+00 -1.02789056e-01 -1.97901390e+00
  2.84877623e+00  3.15712658e+00 -1.97901390e+00  2.84877623e+00  3.15712658e+00
 -4.43029692e+00  1.89182358e+00  1.09058408e+00 -4.43029692e+00  1.89182358e+00
  1.09058408e+00 -5.12028153e-01  6.07559325e+00 -2.58902755e-02 -5.12028153e-01
  6.07559325e+00 -2.58902755e-02 -3.68663634e+00  6.55164704e+00  8.75206580e-01
 -3.68663634e+00  6.55164704e+00  8.75206580e-01 -3.01059604e+00  5.16843923e+00
 -2.08355226e+00 -3.01059604e+00  5.16843923e+00 -2.08355226e+00  2.56709911e+00
 -3.78848534e+00  6.52151308e-01  2.56709911e+00 -3.78848534e+00  6.52151308e-01
  6.20401631e-01 -4.02650384e+00 -2.07224878e+00  6.20401631e-01 -4.02650384e+00
 -2.07224878e+00  5.65513742e-02 -5.98462625e+00  5.46936675e-01  5.65513742e-02
 -5.98462625e+00  5.46936675e-01 -1.15621715e+00 -2.18745820e+00  4.06459654e+00
 -1.15621715e+00 -2.18745820e+00  4.06459654e+00 -1.15621715e+00 -2.18745820e+00
  4.06459654e+00 -1.15621715e+00 -2.18745820e+00  4.06459654e+00 -1.15621715e+00
 -2.18745820e+00  4.06459654e+00 -1.15621715e+00 -2.18745820e+00  4.06459654e+00
 -1.15621715e+00 -2.18745820e+00  4.06459654e+00 -1.15621715e+00 -2.18745820e+00
  4.06459654e+00 -3.11657239e+00 -2.56753944e+00  5.28334864e-01 -3.11657239e+00
 -2.56753944e+00  5.28334864e-01 -2.02073767e+00 -4.73338713e+00  5.17459876e+00
 -2.02073767e+00 -4.73338713e+00  5.17459876e+00 -2.02073767e+00 -4.73338713e+00
  5.17459876e+00 -2.02073767e+00 -4.73338713e+00  5.17459876e+00 -2.02073767e+00
 -4.73338713e+00  5.17459876e+00 -2.02073767e+00 -4.73338713e+00  5.17459876e+00
 -2.02073767e+00 -4.73338713e+00  5.17459876e+00 -2.02073767e+00 -4.73338713e+00
  5.17459876e+00 -2.41687235e+00 -7.23675904e-01  4.81158062e+00 -2.41687235e+00
 -7.23675904e-01  4.81158062e+00  7.40367313e-01 -1.73145569e+00  4.76437989e+00
  7.40367313e-01 -1.73145569e+00  4.76437989e+00 -2.29849583e+00 -4.62949631e+00
  8.05790965e+00 -2.29849583e+00 -4.62949631e+00  8.05790965e+00 -2.29849583e+00
 -4.62949631e+00  8.05790965e+00 -2.29849583e+00 -4.62949631e+00  8.05790965e+00
 -2.29849583e+00 -4.62949631e+00  8.05790965e+00 -2.29849583e+00 -4.62949631e+00
  8.05790965e+00 -2.29849583e+00 -4.62949631e+00  8.05790965e+00 -2.29849583e+00
 -4.62949631e+00  8.05790965e+00 -6.72966998e-01 -6.23112703e+00  4.68620038e+00
 -6.72966998e-01 -6.23112703e+00  4.68620038e+00 -3.83805164e+00 -5.28010673e+00