Generated by Psi4
     FORCE                           RHF                       TESTBAS
Number of atoms                            I               22
Charge                                     I                0
Multiplicity                               I                1
Number of electrons                        I               86
Number of alpha electrons                  I               43
Number of beta electrons                   I               43
Number of basis functions                  I              248
Number of independent functions            I              248
Atomic numbers                             I   N=          22
           6           6           6           6           6           6
           1           1           1           1           1           6
           8           6           7           6           7           1
           1           1           1           1
Nuclear charges                            R   N=          22
  6.00000000e+00  6.00000000e+00  6.00000000e+00  6.00000000e+00  6.00000000e+00
  6.00000000e+00  1.00000000e+00  1.00000000e+00  1.00000000e+00  1.00000000e+00
  1.00000000e+00  6.00000000e+00  8.00000000e+00  6.00000000e+00  7.00000000e+00
  6.00000000e+00  7.00000000e+00  1.00000000e+00  1.00000000e+00  1.00000000e+00
  1.00000000e+00  1.00000000e+00
Current cartesian coordinates              R   N=          66
  4.67339392e-02 -4.19270371e-01  1.70648593e+00  2.33359420e+00  9.10876552e-01
  1.53540932e+00 -6.89458214e-01 -1.40450833e+00  4.04952079e+00  8.13852304e-01
 -1.05255242e+00  6.19396127e+00  3.08754724e+00  2.73906877e-01  6.00784510e+00
  3.84603831e+00  1.24777261e+00  3.66921914e+00 -2.44730147e+00 -2.46151330e+00
  4.19968971e+00  2.14776330e-01 -1.82849497e+00  7.99922302e+00  2.94007293e+00
  1.65795647e+00 -2.78772711e-01  4.26710123e+00  5.40414116e-01  7.66831481e+00
  5.62049206e+00  2.27045388e+00  3.50815292e+00 -1.65662915e+00 -7.17697330e-01
 -5.56934654e-01 -2.16577462e-01 -1.46478837e+00 -2.78689577e+00 -3.02698186e+00
  1.72782230e+00 -1.48082699e+00 -2.75341929e+00  1.70996455e+00 -4.23611323e+00
 -1.14184007e+00 -2.36545186e-02 -4.72599472e+00 -8.61249171e-02 -5.68955925e-01
 -7.02819676e+00 -2.15419321e+00  3.43220377e+00 -6.79466178e-01 -5.02253252e+00
  1.72992509e+00 -9.31918340e-01 -3.02536338e+00 -2.23293763e+00 -2.04608712e-01
 -1.00486804e+00  2.00761903e-01 -8.51757365e+00  4.85013548e-01 -2.37686933e+00
 -7.27904923e+00
Integer atomic weights                     I   N=          22
          12          12          12          12          12          12
           1           1           1           1           1          12
          15          12          14          12          14           1
           1           1           1           1
Real atomic weights                        R   N=          22
  1.20000000e+01  1.20000000e+01  1.20000000e+01  1.20000000e+01  1.20000000e+01
  1.20000000e+01  1.00782503e+00  1.00782503e+00  1.00782503e+00  1.00782503e+00
  1.00782503e+00  1.20000000e+01  1.59949146e+01  1.20000000e+01  1.40030740e+01
  1.20000000e+01  1.40030740e+01  1.00782503e+00  1.00782503e+00  1.00782503e+00
  1.00782503e+00  1.00782503e+00
Number of primitive shells                 I              244
Number of contracted shells                I              116
Pure/Cartesian d shells                    I                1
Pure/Cartesian f shells                    I                1
Highest angular momentum                   I                2
Largest degree of contraction              I                6
Shell types                                I   N=         116
           0           0           1           0           1           2
           0           1           0           0           1           0
           1           2           0           1           0           0
           1           0           1           2           0           1
           0           0           1           0           1           2
           0           1           0           0           1           0
           1           2           0           1           0           0
           1           0           1           2           0           1
           0           0           0           0           0           0
           0           0           0           0           0           0
           1           0           1           2           0           1
           0           0           1           0           1           2
           0           1           0           0           1           0
           1           2           0           1           0           0
           1           0           1           2           0           1
           0           0           1           0           1           2
           0           1           0           0           1           0
           1           2           0           1           0           0
           0           0           0           0           0           0
           0           0
Number of primitives per shell             I   N=         116
           6           3           3           1           1           1
           1           1           6           3           3           1
           1           1           1           1           6           3
           3           1           1           1           1           1
           6           3           3           1           1           1
           1           1           6           3           3           1
           1           1           1           1           6           3
           3           1           1           1           1           1
           3           1           3           1           3           1
           3           1           3           1           6           3
           3           1           1           1           1           1
           6           3           3           1           1           1
           1           1           6           3           3           1
           1           1           1           1           6           3
           3           1           1           1           1           1
           6           3           3           1           1           1
           1           1           6           3           3           1
           1           1           1           1           3           1
           3           1           3           1           3           1
           3           1
Shell to atom map                          I   N=         116
           1           1           1           1           1           1
           1           1           2           2           2           2
           2           2           2           2           3           3
           3           3           3           3           3           3
           4           4           4           4           4           4
           4           4           5           5           5           5
           5           5           5           5           6           6
           6           6           6           6           6           6
           7           7           8           8           9           9
          10          10          11          11          12          12
          12          12          12          12          12          12
          13          13          13          13          13          13
          13          13          14          14          14          14
          14          14          14          14          15          15
          15          15          15          15          15          15
          16          16          16          16          16          16
          16          16          17          17          17          17
          17          17          17          17          18          18
          19          19          20          20          21          21
          22          22
Primitive exponents                        R   N=         244
  3.04752490e+03  4.57369510e+02  1.03948690e+02  2.92101550e+01  9.28666300e+00
  3.16392700e+00  7.86827240e+00  1.88128850e+00  5.44249300e-01  7.86827240e+00
  1.88128850e+00  5.44249300e-01  1.68714400e-01  1.68714400e-01  8.00000000e-01
  4.38000000e-02  4.38000000e-02  3.04752490e+03  4.57369510e+02  1.03948690e+02
  2.92101550e+01  9.28666300e+00  3.16392700e+00  7.86827240e+00  1.88128850e+00
  5.44249300e-01  7.86827240e+00  1.88128850e+00  5.44249300e-01  1.68714400e-01
  1.68714400e-01  8.00000000e-01  4.38000000e-02  4.38000000e-02  3.04752490e+03
  4.57369510e+02  1.03948690e+02  2.92101550e+01  9.28666300e+00  3.16392700e+00
  7.86827240e+00  1.88128850e+00  5.44249300e-01  7.86827240e+00  1.88128850e+00
  5.44249300e-01  1.68714400e-01  1.68714400e-01  8.00000000e-01  4.38000000e-02
  4.38000000e-02  3.04752490e+03  4.57369510e+02  1.03948690e+02  2.92101550e+01
  9.28666300e+00  3.16392700e+00  7.86827240e+00  1.88128850e+00  5.44249300e-01
  7.86827240e+00  1.88128850e+00  5.44249300e-01  1.68714400e-01  1.68714400e-01
  8.00000000e-01  4.38000000e-02  4.38000000e-02  3.04752490e+03  4.57369510e+02
  1.03948690e+02  2.92101550e+01  9.28666300e+00  3.16392700e+00  7.86827240e+00
  1.88128850e+00  5.44249300e-01  7.86827240e+00  1.88128850e+00  5.44249300e-01
  1.68714400e-01  1.68714400e-01  8.00000000e-01  4.38000000e-02  4.38000000e-02
  3.04752490e+03  4.57369510e+02  1.03948690e+02  2.92101550e+01  9.28666300e+00
  3.16392700e+00  7.86827240e+00  1.88128850e+00  5.44249300e-01  7.86827240e+00
  1.88128850e+00  5.44249300e-01  1.68714400e-01  1.68714400e-01  8.00000000e-01
  4.38000000e-02  4.38000000e-02  1.87311370e+01  2.82539370e+00  6.40121700e-01
  1.61277800e-01  1.87311370e+01  2.82539370e+00  6.40121700e-01  1.61277800e-01
  1.87311370e+01  2.82539370e+00  6.40121700e-01  1.61277800e-01  1.87311370e+01
  2.82539370e+00  6.40121700e-01  1.61277800e-01  1.87311370e+01  2.82539370e+00
  6.40121700e-01  1.61277800e-01  3.04752490e+03  4.57369510e+02  1.03948690e+02
  2.92101550e+01  9.28666300e+00  3.16392700e+00  7.86827240e+00  1.88128850e+00
  5.44249300e-01  7.86827240e+00  1.88128850e+00  5.44249300e-01  1.68714400e-01
  1.68714400e-01  8.00000000e-01  4.38000000e-02  4.38000000e-02  5.48467170e+03
  8.25234950e+02  1.88046960e+02  5.29645000e+01  1.68975700e+01  5.79963530e+00
  1.55396160e+01  3.59993360e+00  1.01376180e+00  1.55396160e+01  3.59993360e+00
  1.01376180e+00  2.70005800e-01  2.70005800e-01  8.00000000e-01  8.45000000e-02
  8.45000000e-02  3.04752490e+03  4.57369510e+02  1.03948690e+02  2.92101550e+01
  9.28666300e+00  3.16392700e+00  7.86827240e+00  1.88128850e+00  5.44249300e-01
  7.86827240e+00  1.88128850e+00  5.44249300e-01  1.68714400e-01  1.68714400e-01
  8.00000000e-01  4.38000000e-02  4.38000000e-02  4.17351100e+03  6.27457900e+02
  1.42902100e+02  4.02343300e+01  1.28202100e+01  4.39043700e+00  1.16263580e+01
  2.71628000e+00  7.72218000e-01  1.16263580e+01  2.71628000e+00  7.72218000e-01
  2.12031300e-01  2.12031300e-01  8.00000000e-01  6.39000000e-02  6.39000000e-02
  3.04752490e+03  4.57369510e+02  1.03948690e+02  2.92101550e+01  9.28666300e+00
  3.16392700e+00  7.86827240e+00  1.88128850e+00  5.44249300e-01  7.86827240e+00
  1.88128850e+00  5.44249300e-01  1.68714400e-01  1.68714400e-01  8.00000000e-01
  4.38000000e-02  4.38000000e-02  4.17351100e+03  6.27457900e+02  1.42902100e+02
  4.02343300e+01  1.28202100e+01  4.39043700e+00  1.16263580e+01  2.71628000e+00
  7.72218000e-01  1.16263580e+01  2.71628000e+00  7.72218000e-01  2.12031300e-01
  2.12031300e-01  8.00000000e-01  6.39000000e-02  6.39000000e-02  1.87311370e+01
  2.82539370e+00  6.40121700e-01  1.61277800e-01  1.87311370e+01  2.82539370e+00
  6.40121700e-01  1.61277800e-01  1.87311370e+01  2.82539370e+00  6.40121700e-01
  1.61277800e-01  1.87311370e+01  2.82539370e+00  6.40121700e-01  1.61277800e-01
  1.87311370e+01  2.82539370e+00  6.40121700e-01  1.61277800e-01
Contraction coefficients                   R   N=         244
  1.83470016e-03  1.40373012e-02  6.88426061e-02  2.32184421e-01  4.67941342e-01
  3.62312032e-01 -1.19332409e-01 -1.60854212e-01  1.14345648e+00  6.89990956e-02
  3.16423980e-01  7.44308252e-01  1.00000000e+00  1.00000000e+00  1.00000000e+00
  1.00000000e+00  1.00000000e+00  1.83470016e-03  1.40373012e-02  6.88426061e-02
  2.32184421e-01  4.67941342e-01  3.62312032e-01 -1.19332409e-01 -1.60854212e-01
  1.14345648e+00  6.89990956e-02  3.16423980e-01  7.44308252e-01  1.00000000e+00
  1.00000000e+00  1.00000000e+00  1.00000000e+00  1.00000000e+00  1.83470016e-03
  1.40373012e-02  6.88426061e-02  2.32184421e-01  4.67941342e-01  3.62312032e-01
 -1.19332409e-01 -1.60854212e-01  1.14345648e+00  6.89990956e-02  3.16423980e-01
  7.44308252e-01  1.00000000e+00  1.00000000e+00  1.00000000e+00  1.00000000e+00
  1.00000000e+00  1.83470016e-03  1.40373012e-02  6.88426061e-02  2.32184421e-01
  4.67941342e-01  3.62312032e-01 -1.19332409e-01 -1.60854212e-01  1.14345648e+00
  6.89990956e-02  3.16423980e-01  7.44308252e-01  1.00000000e+00  1.00000000e+00
  1.00000000e+00  1.00000000e+00  1.00000000e+00  1.83470016e-03  1.40373012e-02
  6.88426061e-02  2.32184421e-01  4.67941342e-01  3.62312032e-01 -1.19332409e-01
 -1.60854212e-01  1.14345648e+00  6.89990956e-02  3.16423980e-01  7.44308252e-01
  1.00000000e+00  1.00000000e+00  1.00000000e+00  1.00000000e+00  1.00000000e+00
  1.83470016e-03  1.40373012e-02  6.88426061e-02  2.32184421e-01  4.67941342e-01
  3.62312032e-01 -1.19332409e-01 -1.60854212e-01  1.14345648e+00  6.89990956e-02
  3.16423980e-01  7.44308252e-01  1.00000000e+00  1.00000000e+00  1.00000000e+00
  1.00000000e+00  1.00000000e+00  3.34945995e-02  2.34726947e-01  8.13757318e-01
  1.00000000e+00  3.34945995e-02  2.34726947e-01  8.13757318e-01  1.00000000e+00
  3.34945995e-02  2.34726947e-01  8.13757318e-01  1.00000000e+00  3.34945995e-02
  2.34726947e-01  8.13757318e-01  1.00000000e+00  3.34945995e-02  2.34726947e-01
  8.13757318e-01  1.00000000e+00  1.83470016e-03  1.40373012e-02  6.88426061e-02
  2.32184421e-01  4.67941342e-01  3.62312032e-01 -1.19332409e-01 -1.60854212e-01
  1.14345648e+00  6.89990956e-02  3.16423980e-01  7.44308252e-01  1.00000000e+00
  1.00000000e+00  1.00000000e+00  1.00000000e+00  1.00000000e+00  1.83109981e-03
  1.39500985e-02  6.84450927e-02  2.32714275e-01  4.70192950e-01  3.58520862e-01
 -1.10777504e-01 -1.48026305e-01  1.13076704e+00  7.08742995e-02  3.39752798e-01
  7.27158595e-01  1.00000000e+00  1.00000000e+00  1.00000000e+00  1.00000000e+00
  1.00000000e+00  1.83470016e-03  1.40373012e-02  6.88426061e-02  2.32184421e-01
  4.67941342e-01  3.62312032e-01 -1.19332409e-01 -1.60854212e-01  1.14345648e+00
  6.89990956e-02  3.16423980e-01  7.44308252e-01  1.00000000e+00  1.00000000e+00
  1.00000000e+00  1.00000000e+00  1.00000000e+00  1.83479944e-03  1.39949958e-02
  6.85869792e-02  2.32240930e-01  4.69069858e-01  3.60454891e-01 -1.14961023e-01
 -1.69118034e-01  1.14585223e+00  6.75800232e-02  3.23907111e-01  7.40895255e-01
  1.00000000e+00  1.00000000e+00  1.00000000e+00  1.00000000e+00  1.00000000e+00
  1.83470016e-03  1.40373012e-02  6.88426061e-02  2.32184421e-01  4.67941342e-01
  3.62312032e-01 -1.19332409e-01 -1.60854212e-01  1.14345648e+00  6.89990956e-02
  3.16423980e-01  7.44308252e-01  1.00000000e+00  1.00000000e+00  1.00000000e+00
  1.00000000e+00  1.00000000e+00  1.83479944e-03  1.39949958e-02  6.85869792e-02
  2.32240930e-01  4.69069858e-01  3.60454891e-01 -1.14961023e-01 -1.69118034e-01
  1.14585223e+00  6.75800232e-02  3.23907111e-01  7.40895255e-01  1.00000000e+00
  1.00000000e+00  1.00000000e+00  1.00000000e+00  1.00000000e+00  3.34945995e-02
  2.34726947e-01  8.13757318e-01  1.00000000e+00  3.34945995e-02  2.34726947e-01
  8.13757318e-01  1.00000000e+00  3.34945995e-02  2.34726947e-01  8.13757318e-01
  1.00000000e+00  3.34945995e-02  2.34726947e-01  8.13757318e-01  1.00000000e+00
  3.34945995e-02  2.34726947e-01  8.13757318e-01  1.00000000e+00
Coordinates of each shell                  R   N=         348
  4.67339392e-02 -4.19270371e-01  1.70648593e+00  4.67339392e-02 -4.19270371e-01
  1.70648593e+00  4.67339392e-02 -4.19270371e-01  1.70648593e+00  4.67339392e-02
 -4.19270371e-01  1.70648593e+00  4.67339392e-02 -4.19270371e-01  1.70648593e+00
  4.67339392e-02 -4.19270371e-01  1.70648593e+00  4.67339392e-02 -4.19270371e-01
  1.70648593e+00  4.67339392e-02 -4.19270371e-01  1.70648593e+00  2.33359420e+00
  9.10876552e-01  1.53540932e+00  2.33359420e+00  9.10876552e-01  1.53540932e+00
  2.33359420e+00  9.10876552e-01  1.53540932e+00  2.33359420e+00  9.10876552e-01
  1.53540932e+00  2.33359420e+00  9.10876552e-01  1.53540932e+00  2.33359420e+00
  9.10876552e-01  1.53540932e+00  2.33359420e+00  9.10876552e-01  1.53540932e+00
  2.33359420e+00  9.10876552e-01  1.53540932e+00 -6.89458214e-01 -1.40450833e+00
  4.04952079e+00 -6.89458214e-01 -1.40450833e+00  4.04952079e+00 -6.89458214e-01
 -1.40450833e+00  4.04952079e+00 -6.89458214e-01 -1.40450833e+00  4.04952079e+00
 -6.89458214e-01 -1.40450833e+00  4.04952079e+00 -6.89458214e-01 -1.40450833e+00
  4.04952079e+00 -6.89458214e-01 -1.40450833e+00  4.04952079e+00 -6.89458214e-01
 -1.40450833e+00  4.04952079e+00  8.13852304e-01 -1.05255242e+00  6.19396127e+00
  8.13852304e-01 -1.05255242e+00  6.19396127e+00  8.13852304e-01 -1.05255242e+00
  6.19396127e+00  8.13852304e-01 -1.05255242e+00  6.19396127e+00  8.13852304e-01
 -1.05255242e+00  6.19396127e+00  8.13852304e-01 -1.05255242e+00  6.19396127e+00
  8.13852304e-01 -1.05255242e+00  6.19396127e+00  8.13852304e-01 -1.05255242e+00
  6.19396127e+00  3.08754724e+00  2.73906877e-01  6.00784510e+00  3.08754724e+00
  2.73906877e-01  6.00784510e+00  3.08754724e+00  2.73906877e-01  6.00784510e+00
  3.08754724e+00  2.73906877e-01  6.00784510e+00  3.08754724e+00  2.73906877e-01
  6.00784510e+00  3.08754724e+00  2.73906877e-01  6.00784510e+00  3.08754724e+00
  2.73906877e-01  6.00784510e+00  3.08754724e+00  2.73906877e-01  6.00784510e+00
  3.84603831e+00  1.24777261e+00  3.66921914e+00  3.84603831e+00  1.24777261e+00
  3.66921914e+00  3.84603831e+00  1.24777261e+00  3.66921914e+00  3.84603831e+00
  1.24777261e+00  3.66921914e+00  3.84603831e+00  1.24777261e+00  3.66921914e+00
  3.84603831e+00  1.24777261e+00  3.66921914e+00  3.84603831e+00  1.24777261e+00
  3.66921914e+00  3.84603831e+00  1.24777261e+00  3.66921914e+00 -2.44730147e+00
 -2.46151330e+00  4.19968971e+00 -2.44730147e+00 -2.46151330e+00  4.19968971e+00
  2.14776330e-01 -1.82849497e+00  7.99922302e+00  2.14776330e-01 -1.82849497e+00
  7.99922302e+00  2.94007293e+00  1.65795647e+00 -2.78772711e-01  2.94007293e+00
  1.65795647e+00 -2.78772711e-01  4.26710123e+00  5.40414116e-01  7.66831481e+00
  4.26710123e+00  5.40414116e-01  7.66831481e+00  5.62049206e+00  2.27045388e+00
  3.50815292e+00  5.62049206e+00  2.27045388e+00  3.50815292e+00 -1.65662915e+00
 -7.17697330e-01 -5.56934654e-01 -1.65662915e+00 -7.17697330e-01 -5.56934654e-01
 -1.65662915e+00 -7.17697330e-01 -5.56934654e-01 -1.65662915e+00 -7.17697330e-01
 -5.56934654e-01 -1.65662915e+00 -7.17697330e-01 -5.56934654e-01 -1.65662915e+00
 -7.17697330e-01 -5.56934654e-01 -1.65662915e+00 -7.17697330e-01 -5.56934654e-01
 -1.65662915e+00 -7.17697330e-01 -5.56934654e-01 -2.16577462e-01 -1.46478837e+00
 -2.78689577e+00 -2.16577462e-01 -1.46478837e+00 -2.78689577e+00 -2.16577462e-01
 -1.46478837e+00 -2.78689577e+00 -2.16577462e-01 -1.46478837e+00 -2.78689577e+00
 -2.16577462e-01 -1.46478837e+00 -2.78689577e+00 -2.16577462e-01 -1.46478837e+00
 -2.78689577e+00 -2.16577462e-01 -1.46478837e+00 -2.78689577e+00 -2.16577462e-01
 -1.46478837e+00 -2.78689577e+00 -3.02698186e+00  1.72782230e+00 -1.48082699e+00
 -3.02698186e+00  1.72782230e+00 -1.48082699e+00 -3.02698186e+00  1.72782230e+00
 -1.48082699e+00 -3.02698186e+00  1.72782230e+00 -1.48082699e+00 -3.02698186e+00
  1.72782230e+00 -1.48082699e+00 -3.02698186e+00  1.72782230e+00 -1.48082699e+00
 -3.02698186e+00  1.72782230e+00 -1.48082699e+00 -3.02698186e+00  1.72782230e+00
 -1.48082699e+00 -2.75341929e+00  1.70996455e+00 -4.23611323e+00 -2.75341929e+00
  1.70996455e+00 -4.23611323e+00 -2.75341929e+00  1.70996455e+00 -4.23611323e+00
 -2.75341929e+00  1.70996455e+00 -4.23611323e+00 -2.75341929e+00  1.70996455e+00
 -4.23611323e+00 -2.75341929e+00  1.70996455e+00 -4.23611323e+00 -2.75341929e+00
  1.70996455e+00 -4.23611323e+00 -2.75341929e+00  1.70996455e+00 -4.23611323e+00
 -1.14184007e+00 -2.36545186e-02 -4.72599472e+00 -1.14184007e+00 -2.36545186e-02
 -4.72599472e+00 -1.14184007e+00 -2.36545186e-02 -4.72599472e+00 -1.14184007e+00
 -2.36545186e-02 -4.72599472e+00 -1.14184007e+00 -2.36545186e-02 -4.72599472e+00
 -1.14184007e+00 -2.36545186e-02 -4.72599472e+00 -1.14184007e+00 -2.36545186e-02
 -4.72599472e+00 -1.14184007e+00 -2.36545186e-02 -4.72599472e+00 -8.61249171e-02
 -5.68955925e-01 -7.02819676e+00 -8.61249171e-02 -5.68955925e-01 -7.02819676e+00
 -8.61249171e-02 -5.68955925e-01 -7.02819676e+00 -8.61249171e-02 -5.68955925e-01
 -7.02819676e+00 -8.61249171e-02 -5.68955925e-01 -7.02819676e+00 -8.61249171e-02
 -5.68955925e-01 -7.02819676e+00 -8.61249171e-02 -5.68955925e-01 -7.02819676e+00
 -8.61249171e-02 -5.68955925e-01 -7.02819676e+00 -2.15419321e+00  3.43220377e+00
 -6.79466178e-01 -2.15419321e+00  3.43220377e+00 -6.79466178e-01 -5.02253252e+00
  1.72992509e+00 -9.31918340e-01 -5.02253252e+00  1.72992509e+00 -9.31918340e-01
 -3.02536338e+00 -2.23293763e+00 -2.04608712e-01 -3.02536338e+00 -2.23293763e+00
 -2.04608712e-01 -1.00486804e+00  2.00761903e-01 -8.51757365e+00 -1.00486804e+00
  2.00761903e-01 -8.51757365e+00  4.85013548e-01 -2.37686933e+00 -7.27904923e+00
  4.85013548e-01 -2.37686933e+00 -7.27904923e+00
Total Energy                               R     -5.337229147465945e+02
Alpha Orbital Energies                     R   N=         248
 -1.91940109e+01 -1.43667327e+01 -1.43084332e+01 -1.03080784e+01 -1.02593815e+01
 -1.02181340e+01 -1.02096495e+01 -1.02035206e+01 -1.02026913e+01 -1.02021496e+01
 -1.02014932e+01 -1.02002851e+01 -1.09868791e+00 -9.37287124e-01 -8.91968409e-01
 -8.66572630e-01 -7.88535294e-01 -7.55274459e-01 -7.24377083e-01 -6.50344020e-01
 -6.19052178e-01 -6.09886613e-01 -5.81286957e-01 -5.37132999e-01 -5.28860774e-01
 -5.10805273e-01 -4.95747668e-01 -4.68536764e-01 -4.53851341e-01 -4.33974973e-01
 -4.30963640e-01 -4.28858578e-01 -4.05115527e-01 -3.99669735e-01 -3.81444894e-01
 -3.63757877e-01 -3.53002660e-01 -3.51792659e-01 -2.99671122e-01 -2.84526201e-01
 -2.61889080e-01 -2.50716697e-01 -2.35880467e-01 -2.47711946e-02 -1.88686002e-02
 -4.39669300e-03  4.43728493e-03  1.48728818e-02  2.64574546e-02  3.52168189e-02
  3.84010375e-02  4.16872525e-02  5.03660118e-02  5.14715888e-02  6.33804507e-02
  6.59630874e-02  7.07142120e-02  7.49956029e-02  9.04667456e-02  9.25145662e-02
  1.01364130e-01  1.03888010e-01  1.07972424e-01  1.15006383e-01  1.20651918e-01
  1.33090715e-01  1.36291256e-01  1.36832249e-01  1.45144421e-01  1.50856883e-01
  1.55804296e-01  1.56694462e-01  1.66683332e-01  1.74096191e-01  1.77771891e-01
  1.79803744e-01  1.86965018e-01  1.89323936e-01  1.95162912e-01  2.02104699e-01
  2.07180544e-01  2.09789621e-01  2.14604855e-01  2.19456394e-01  2.28067295e-01
  2.30759138e-01  2.36333331e-01  2.41134027e-01  2.45714047e-01  2.52382412e-01
  2.58214531e-01  2.60371286e-01  2.70135808e-01  2.74048340e-01  2.76706584e-01
  2.83142435e-01  2.85708694e-01  2.94581314e-01  2.99841737e-01  3.01430753e-01
  3.15865426e-01  3.22951416e-01  3.31029297e-01  3.36561212e-01  3.40691174e-01
  3.51950118e-01  3.57336325e-01  3.60206408e-01  3.73325180e-01  3.84269419e-01
  3.97466396e-01  4.10649107e-01  4.16386612e-01  4.48565820e-01  4.54234021e-01
  5.11804936e-01  5.71268786e-01  5.99303351e-01  6.47578547e-01  6.56801070e-01
  6.75993612e-01  6.92046777e-01  7.03774068e-01  7.13415239e-01  7.22167295e-01
  7.29183207e-01  7.42678190e-01  7.44292944e-01  7.57632144e-01  7.63580373e-01
  7.84136076e-01  7.93450809e-01  8.05816913e-01  8.11457684e-01  8.31754540e-01
  8.36295824e-01  8.67247084e-01  8.85548471e-01  9.00787526e-01  9.12857833e-01
  9.29472698e-01  9.31786155e-01  9.39996951e-01  9.54792164e-01  9.65651303e-01
  9.72441786e-01  9.93837867e-01  1.01670912e+00  1.02965579e+00  1.03418198e+00
  1.04312638e+00  1.06020181e+00  1.07225979e+00  1.08516362e+00  1.10470370e+00
  1.11879831e+00  1.12979389e+00  1.14715511e+00  1.15664991e+00  1.18204601e+00
  1.19133104e+00  1.20222891e+00  1.21884582e+00  1.24330983e+00  1.25482669e+00
  1.25590776e+00  1.29997577e+00  1.33580649e+00  1.35525906e+00  1.39672349e+00
  1.40397429e+00  1.43138518e+00  1.45076086e+00  1.45339695e+00  1.47643654e+00
  1.48048566e+00  1.49942965e+00  1.50307341e+00  1.50973780e+00  1.57690517e+00
  1.63650016e+00  1.65501340e+00  1.71913091e+00  1.72912739e+00  1.73047219e+00
  1.79026824e+00  1.80420929e+00  1.83333230e+00  1.84353690e+00  1.86269312e+00
  1.87926986e+00  1.91619851e+00  1.93597496e+00  1.95929069e+00  1.97420737e+00
  1.99515302e+00  2.01323028e+00  2.04994467e+00  2.05615931e+00  2.09893459e+00
  2.11889180e+00  2.14093268e+00  2.15595006e+00  2.16076651e+00  2.18965406e+00
  2.20817645e+00  2.22052805e+00  2.26693853e+00  2.29251952e+00  2.30127350e+00
  2.31664109e+00  2.33323501e+00  2.35588155e+00  2.42013111e+00  2.45475335e+00
  2.49001906e+00  2.55213047e+00  2.57525462e+00  2.59219696e+00  2.61633341e+00
  2.63109583e+00  2.64284662e+00  2.64941519e+00  2.73581012e+00  2.74306479e+00
  2.74951513e+00  2.76246516e+00  2.79388897e+00  2.81787511e+00  2.90475575e+00
  2.93498085e+00  2.95893503e+00  3.05969859e+00  3.12541290e+00  3.16245914e+00
  3.39673885e+00  4.00102239e+00  4.22768873e+00  4.23824450e+00  4.25813480e+00
  4.28235888e+00  4.33847451e+00  4.38239570e+00  4.43752062e+00  4.47281821e+00
  4.56333816e+00  4.68996187e+00  4.73095454e+00
Alpha MO coefficients                      R   N=       61504
 -1.23490868e-05 -8.92271598e-05  6.96667936e-06 -3.35554153e-05  6.77753251e-05
 -1.06257504e-04  5.22667879e-04  5.75422283e-04 -6.86921389e-04  2.65641847e-06
 -3.69774742e-05  7.21243460e-06  1.30698834e-06 -1.35805407e-05  2.97903454e-05
  1.39643794e-02 -1.17803645e-02 -8.06524781e-03  8.12200969e-03 -4.38518947e-06
  3.40810482e-05  2.56967649e-05 -1.37728048e-05  1.23614092e-05 -3.11389376e-04
  3.25978663e-04  3.41887721e-04  1.87448300e-04 -3.07147927e-05 -1.96663408e-05
 -5.35554970e-05 -1.66589124e-05 -3.18747469e-05 -3.62208234e-05  1.36285000e-02
 -8.15467031e-03 -3.42178761e-03 -5.53210869e-03 -5.04558615e-06 -5.05908580e-05
 -2.28041530e-06 -1.56648126e-05 -2.40687809e-05  8.29334105e-04  2.62934359e-04
  2.57898638e-04 -3.90690439e-04  8.32511679e-06 -1.10275481e-05  3.56606208e-05
  2.66712261e-08 -2.70992079e-06  2.94088223e-06 -1.52402554e-02  2.81420396e-03
 -1.90057389e-03  1.24948688e-02  5.07078544e-06  2.77838982e-05  8.18144503e-06
  1.28350025e-05  4.14561090e-06 -2.50590553e-04 -1.12989262e-04 -1.44090905e-04
  1.72741690e-04  5.07596083e-06  5.54013195e-06 -4.63267377e-06 -2.90900627e-06
 -1.00608692e-05  3.32461656e-06 -8.98964236e-03  4.39998527e-03  2.11287490e-03
  2.74010410e-03  6.42204982e-07  2.77297047e-06 -8.00655593e-06 -5.07926823e-06
  1.20401859e-06  4.56770247e-05 -1.04053361e-04 -3.04468206e-05  6.42318114e-05
  2.65787416e-06  5.22620783e-06 -4.55238709e-06  1.73909976e-06  2.61690622e-06
  1.37484238e-07 -1.34884907e-03  2.03121090e-03  1.45574133e-03 -1.74494039e-03
 -1.91219404e-06 -1.22165606e-05 -2.83229149e-06  1.47767131e-05 -7.92866324e-06
 -1.09327604e-04 -2.90312481e-05 -1.60019527e-04  1.46445759e-04 -5.90981670e-06
  2.10646179e-06  1.14824391e-05  9.87143776e-06  1.23729361e-05  1.02345908e-05
  6.29077581e-03 -8.47685025e-04  3.82250191e-04 -3.67689944e-03 -1.05051312e-05
  2.13031308e-04 -1.48778168e-05 -4.07861759e-05 -1.91187709e-05  2.58137867e-05
 -2.10158260e-06  9.41949416e-06  1.24742660e-05  7.51741072e-05  4.24576740e-05
  1.68278005e-04 -1.42242570e-04  3.39445201e-05  2.06227247e-04 -4.77997911e-04
 -3.21414423e-04 -2.16439071e-05  6.66166297e-04 -9.67994226e-05  1.43758974e-05
 -3.43743757e-04  7.55985628e-05  2.78446379e-04 -1.32308794e-04 -2.71117978e-02
 -3.73476867e-03 -4.15350265e-03  4.31166441e-03 -9.92526763e-01 -2.52662076e-02
  8.14140383e-04 -7.91970207e-04  5.90223578e-05 -1.55687660e-02 -1.02276494e-03
  9.32351140e-04 -1.09647844e-04  8.79893631e-03  8.80205579e-03  8.97368441e-03
 -1.69930537e-04 -4.87440310e-05 -6.52576900e-05  1.32789920e-02 -2.83160870e-04
  5.99812704e-04  1.26259603e-03 -9.22047239e-07 -7.12497650e-05  6.57071071e-06
 -4.23580713e-06 -1.50483192e-05 -1.74926414e-04  2.36962072e-05 -5.04685852e-05
  1.46953582e-04  4.84656937e-05  3.99082220e-05 -1.02484215e-05 -6.01206406e-05
 -3.11142191e-05  3.82463339e-05  1.19853590e-02  2.20391591e-03 -1.97409321e-03
 -6.54380012e-04 -1.40248489e-05 -1.36094652e-04  1.64584200e-05 -9.44340114e-06
 -3.96121585e-06  8.10877114e-04  2.37171940e-04 -3.46914058e-04  1.12524374e-04
 -1.09153777e-07  3.62479833e-05  1.26679254e-05 -9.09566738e-05  1.73174220e-05
 -3.30781804e-05  1.78216700e-03  5.54689250e-04 -3.68679688e-04  1.67698495e-04
  5.73628924e-05  2.38106214e-05 -1.47392358e-04  2.21075154e-04 -3.28812556e-04
 -1.65230486e-03  4.96521860e-04 -3.45614094e-04 -5.25687809e-04  5.34140332e-05
 -2.80388584e-05 -1.71422005e-04  1.39861166e-04 -9.59132773e-05  1.92133919e-04
  5.33251034e-04  3.51595456e-04 -1.25084226e-03 -5.78171567e-04 -1.10652547e-05
 -1.19564843e-04  6.03553974e-06  9.31545344e-07  7.64044301e-06  3.44400472e-05
 -5.92254568e-05 -1.64803244e-05 -2.55467553e-05 -4.40352499e-05 -1.50594983e-05
  1.02880136e-04 -2.83015516e-05 -4.23292925e-06 -4.18970344e-05 -1.57783927e-03
  2.20887811e-04  2.65610746e-04 -3.38645098e-04 -5.92502093e-06  3.04450804e-04
  3.17070542e-06  1.00324220e-04 -6.18243188e-05 -1.82774403e-04 -4.96352742e-05