Generated by Psi4
     FORCE                           RHF                       TESTBAS
Number of atoms                            I               18
Charge                                     I                0
Multiplicity                               I                1
Number of electrons                        I               76
Number of alpha electrons                  I               38
Number of beta electrons                   I               38
Number of basis functions                  I              193
Number of independent functions            I              193
Atomic numbers                             I   N=          18
           6           6           6           6           1           6
          17           1           1           1           1           1
           1           6           8           1           6           1
Nuclear charges                            R   N=          18
  6.00000000e+00  6.00000000e+00  6.00000000e+00  6.00000000e+00  1.00000000e+00
  6.00000000e+00  1.70000000e+01  1.00000000e+00  1.00000000e+00  1.00000000e+00
  1.00000000e+00  1.00000000e+00  1.00000000e+00  6.00000000e+00  8.00000000e+00
  1.00000000e+00  6.00000000e+00  1.00000000e+00
Current cartesian coordinates              R   N=          54
  2.09538076e+00 -3.54973022e+00 -1.28218446e+00 -1.06217568e-01 -1.63402981e+00
 -1.51403258e+00 -8.11233578e-01  1.98387012e+00  1.54332790e+00 -7.32703698e-01
 -4.80450168e-01  1.04175910e+00 -1.18689032e+00 -1.86329958e+00  2.49428866e+00
  4.62653405e+00 -2.41479748e+00 -4.66895515e-01 -1.61507199e+00  3.18888758e+00
  4.51703320e+00 -3.82964382e-01  3.44916244e+00  1.78173532e-01  6.06428122e+00
 -3.90098547e+00 -3.57154145e-01  4.50150832e+00 -1.51689630e+00  1.39502538e+00
  5.28737828e+00 -9.92341378e-01 -1.81867766e+00  2.27391676e+00 -4.48230282e+00
 -3.12230556e+00  1.47556068e+00 -4.99459828e+00  6.89760977e-02  4.45340350e-01
  2.87036030e-01 -3.45916513e+00 -2.23376918e+00 -3.15380082e+00 -2.30044119e+00
 -3.67971166e+00 -2.04420263e+00 -2.52998888e+00  8.58332166e-01  1.82570594e+00
 -5.09867478e+00  1.22598652e+00  3.17034169e+00 -6.55785716e+00
Integer atomic weights                     I   N=          18
          12          12          12          12           1          12
          34           1           1           1           1           1
           1          12          15           1          12           1
Real atomic weights                        R   N=          18
  1.20000000e+01  1.20000000e+01  1.20000000e+01  1.20000000e+01  1.00782503e+00
  1.20000000e+01  3.49688527e+01  1.00782503e+00  1.00782503e+00  1.00782503e+00
  1.00782503e+00  1.00782503e+00  1.00782503e+00  1.20000000e+01  1.59949146e+01
  1.00782503e+00  1.20000000e+01  1.00782503e+00
Number of primitive shells                 I              201
Number of contracted shells                I               92
Pure/Cartesian d shells                    I                1
Pure/Cartesian f shells                    I                1
Highest angular momentum                   I                2
Largest degree of contraction              I                6
Shell types                                I   N=          92
           0           0           1           0           1           2
           0           1           0           0           1           0
           1           2           0           1           0           0
           1           0           1           2           0           1
           0           0           1           0           1           2
           0           1           0           0           0           0
           1           0           1           2           0           1
           0           0           1           0           1           0
           1           2           0           1           0           0
           0           0           0           0           0           0
           0           0           0           0           0           0
           1           0           1           2           0           1
           0           0           1           0           1           2
           0           1           0           0           0           0
           1           0           1           2           0           1
           0           0
Number of primitives per shell             I   N=          92
           6           3           3           1           1           1
           1           1           6           3           3           1
           1           1           1           1           6           3
           3           1           1           1           1           1
           6           3           3           1           1           1
           1           1           3           1           6           3
           3           1           1           1           1           1
           6           6           6           3           3           1
           1           1           1           1           3           1
           3           1           3           1           3           1
           3           1           3           1           6           3
           3           1           1           1           1           1
           6           3           3           1           1           1
           1           1           3           1           6           3
           3           1           1           1           1           1
           3           1
Shell to atom map                          I   N=          92
           1           1           1           1           1           1
           1           1           2           2           2           2
           2           2           2           2           3           3
           3           3           3           3           3           3
           4           4           4           4           4           4
           4           4           5           5           6           6
           6           6           6           6           6           6
           7           7           7           7           7           7
           7           7           7           7           8           8
           9           9          10          10          11          11
          12          12          13          13          14          14
          14          14          14          14          14          14
          15          15          15          15          15          15
          15          15          16          16          17          17
          17          17          17          17          17          17
          18          18
Primitive exponents                        R   N=         201
  3.04752490e+03  4.57369510e+02  1.03948690e+02  2.92101550e+01  9.28666300e+00
  3.16392700e+00  7.86827240e+00  1.88128850e+00  5.44249300e-01  7.86827240e+00
  1.88128850e+00  5.44249300e-01  1.68714400e-01  1.68714400e-01  8.00000000e-01
  4.38000000e-02  4.38000000e-02  3.04752490e+03  4.57369510e+02  1.03948690e+02
  2.92101550e+01  9.28666300e+00  3.16392700e+00  7.86827240e+00  1.88128850e+00
  5.44249300e-01  7.86827240e+00  1.88128850e+00  5.44249300e-01  1.68714400e-01
  1.68714400e-01  8.00000000e-01  4.38000000e-02  4.38000000e-02  3.04752490e+03
  4.57369510e+02  1.03948690e+02  2.92101550e+01  9.28666300e+00  3.16392700e+00
  7.86827240e+00  1.88128850e+00  5.44249300e-01  7.86827240e+00  1.88128850e+00
  5.44249300e-01  1.68714400e-01  1.68714400e-01  8.00000000e-01  4.38000000e-02
  4.38000000e-02  3.04752490e+03  4.57369510e+02  1.03948690e+02  2.92101550e+01
  9.28666300e+00  3.16392700e+00  7.86827240e+00  1.88128850e+00  5.44249300e-01
  7.86827240e+00  1.88128850e+00  5.44249300e-01  1.68714400e-01  1.68714400e-01
  8.00000000e-01  4.38000000e-02  4.38000000e-02  1.87311370e+01  2.82539370e+00
  6.40121700e-01  1.61277800e-01  3.04752490e+03  4.57369510e+02  1.03948690e+02
  2.92101550e+01  9.28666300e+00  3.16392700e+00  7.86827240e+00  1.88128850e+00
  5.44249300e-01  7.86827240e+00  1.88128850e+00  5.44249300e-01  1.68714400e-01
  1.68714400e-01  8.00000000e-01  4.38000000e-02  4.38000000e-02  2.51801000e+04
  3.78035000e+03  8.60474000e+02  2.42145000e+02  7.73349000e+01  2.62470000e+01
  4.91765000e+02  1.16984000e+02  3.74153000e+01  1.37834000e+01  5.45215000e+00
  2.22588000e+00  4.91765000e+02  1.16984000e+02  3.74153000e+01  1.37834000e+01
  5.45215000e+00  2.22588000e+00  3.18649000e+00  1.14427000e+00  4.20377000e-01
  3.18649000e+00  1.14427000e+00  4.20377000e-01  1.42657000e-01  1.42657000e-01
  7.50000000e-01  4.83000000e-02  4.83000000e-02  1.87311370e+01  2.82539370e+00
  6.40121700e-01  1.61277800e-01  1.87311370e+01  2.82539370e+00  6.40121700e-01
  1.61277800e-01  1.87311370e+01  2.82539370e+00  6.40121700e-01  1.61277800e-01
  1.87311370e+01  2.82539370e+00  6.40121700e-01  1.61277800e-01  1.87311370e+01
  2.82539370e+00  6.40121700e-01  1.61277800e-01  1.87311370e+01  2.82539370e+00
  6.40121700e-01  1.61277800e-01  3.04752490e+03  4.57369510e+02  1.03948690e+02
  2.92101550e+01  9.28666300e+00  3.16392700e+00  7.86827240e+00  1.88128850e+00
  5.44249300e-01  7.86827240e+00  1.88128850e+00  5.44249300e-01  1.68714400e-01
  1.68714400e-01  8.00000000e-01  4.38000000e-02  4.38000000e-02  5.48467170e+03
  8.25234950e+02  1.88046960e+02  5.29645000e+01  1.68975700e+01  5.79963530e+00
  1.55396160e+01  3.59993360e+00  1.01376180e+00  1.55396160e+01  3.59993360e+00
  1.01376180e+00  2.70005800e-01  2.70005800e-01  8.00000000e-01  8.45000000e-02
  8.45000000e-02  1.87311370e+01  2.82539370e+00  6.40121700e-01  1.61277800e-01
  3.04752490e+03  4.57369510e+02  1.03948690e+02  2.92101550e+01  9.28666300e+00
  3.16392700e+00  7.86827240e+00  1.88128850e+00  5.44249300e-01  7.86827240e+00
  1.88128850e+00  5.44249300e-01  1.68714400e-01  1.68714400e-01  8.00000000e-01
  4.38000000e-02  4.38000000e-02  1.87311370e+01  2.82539370e+00  6.40121700e-01
  1.61277800e-01
Contraction coefficients                   R   N=         201
  1.83470016e-03  1.40373012e-02  6.88426061e-02  2.32184421e-01  4.67941342e-01
  3.62312032e-01 -1.19332409e-01 -1.60854212e-01  1.14345648e+00  6.89990956e-02
  3.16423980e-01  7.44308252e-01  1.00000000e+00  1.00000000e+00  1.00000000e+00
  1.00000000e+00  1.00000000e+00  1.83470016e-03  1.40373012e-02  6.88426061e-02
  2.32184421e-01  4.67941342e-01  3.62312032e-01 -1.19332409e-01 -1.60854212e-01
  1.14345648e+00  6.89990956e-02  3.16423980e-01  7.44308252e-01  1.00000000e+00
  1.00000000e+00  1.00000000e+00  1.00000000e+00  1.00000000e+00  1.83470016e-03
  1.40373012e-02  6.88426061e-02  2.32184421e-01  4.67941342e-01  3.62312032e-01
 -1.19332409e-01 -1.60854212e-01  1.14345648e+00  6.89990956e-02  3.16423980e-01
  7.44308252e-01  1.00000000e+00  1.00000000e+00  1.00000000e+00  1.00000000e+00
  1.00000000e+00  1.83470016e-03  1.40373012e-02  6.88426061e-02  2.32184421e-01
  4.67941342e-01  3.62312032e-01 -1.19332409e-01 -1.60854212e-01  1.14345648e+00
  6.89990956e-02  3.16423980e-01  7.44308252e-01  1.00000000e+00  1.00000000e+00
  1.00000000e+00  1.00000000e+00  1.00000000e+00  3.34945995e-02  2.34726947e-01
  8.13757318e-01  1.00000000e+00  1.83470016e-03  1.40373012e-02  6.88426061e-02
  2.32184421e-01  4.67941342e-01  3.62312032e-01 -1.19332409e-01 -1.60854212e-01
  1.14345648e+00  6.89990956e-02  3.16423980e-01  7.44308252e-01  1.00000000e+00
  1.00000000e+00  1.00000000e+00  1.00000000e+00  1.00000000e+00  1.83300031e-03
  1.40340024e-02  6.90970118e-02  2.37452040e-01  4.83034082e-01  3.39856058e-01
 -2.29740199e-03 -3.07140266e-02 -1.12528097e-01  4.50160390e-02  5.89353510e-01
  4.65206403e-01  3.98940055e-03  3.03180042e-02  1.29880018e-01  3.27951045e-01
  4.53527062e-01  2.52154035e-01 -2.51831288e-01  6.15893150e-02  1.06018542e+00
 -1.42990127e-02  3.23572288e-01  7.43507661e-01  1.00000000e+00  1.00000000e+00
  1.00000000e+00  1.00000000e+00  1.00000000e+00  3.34945995e-02  2.34726947e-01
  8.13757318e-01  1.00000000e+00  3.34945995e-02  2.34726947e-01  8.13757318e-01
  1.00000000e+00  3.34945995e-02  2.34726947e-01  8.13757318e-01  1.00000000e+00
  3.34945995e-02  2.34726947e-01  8.13757318e-01  1.00000000e+00  3.34945995e-02
  2.34726947e-01  8.13757318e-01  1.00000000e+00  3.34945995e-02  2.34726947e-01
  8.13757318e-01  1.00000000e+00  1.83470016e-03  1.40373012e-02  6.88426061e-02
  2.32184421e-01  4.67941342e-01  3.62312032e-01 -1.19332409e-01 -1.60854212e-01
  1.14345648e+00  6.89990956e-02  3.16423980e-01  7.44308252e-01  1.00000000e+00
  1.00000000e+00  1.00000000e+00  1.00000000e+00  1.00000000e+00  1.83109981e-03
  1.39500985e-02  6.84450927e-02  2.32714275e-01  4.70192950e-01  3.58520862e-01
 -1.10777504e-01 -1.48026305e-01  1.13076704e+00  7.08742995e-02  3.39752798e-01
  7.27158595e-01  1.00000000e+00  1.00000000e+00  1.00000000e+00  1.00000000e+00
  1.00000000e+00  3.34945995e-02  2.34726947e-01  8.13757318e-01  1.00000000e+00
  1.83470016e-03  1.40373012e-02  6.88426061e-02  2.32184421e-01  4.67941342e-01
  3.62312032e-01 -1.19332409e-01 -1.60854212e-01  1.14345648e+00  6.89990956e-02
  3.16423980e-01  7.44308252e-01  1.00000000e+00  1.00000000e+00  1.00000000e+00
  1.00000000e+00  1.00000000e+00  3.34945995e-02  2.34726947e-01  8.13757318e-01
  1.00000000e+00
Coordinates of each shell                  R   N=         276
  2.09538076e+00 -3.54973022e+00 -1.28218446e+00  2.09538076e+00 -3.54973022e+00
 -1.28218446e+00  2.09538076e+00 -3.54973022e+00 -1.28218446e+00  2.09538076e+00
 -3.54973022e+00 -1.28218446e+00  2.09538076e+00 -3.54973022e+00 -1.28218446e+00
  2.09538076e+00 -3.54973022e+00 -1.28218446e+00  2.09538076e+00 -3.54973022e+00
 -1.28218446e+00  2.09538076e+00 -3.54973022e+00 -1.28218446e+00 -1.06217568e-01
 -1.63402981e+00 -1.51403258e+00 -1.06217568e-01 -1.63402981e+00 -1.51403258e+00
 -1.06217568e-01 -1.63402981e+00 -1.51403258e+00 -1.06217568e-01 -1.63402981e+00
 -1.51403258e+00 -1.06217568e-01 -1.63402981e+00 -1.51403258e+00 -1.06217568e-01
 -1.63402981e+00 -1.51403258e+00 -1.06217568e-01 -1.63402981e+00 -1.51403258e+00
 -1.06217568e-01 -1.63402981e+00 -1.51403258e+00 -8.11233578e-01  1.98387012e+00
  1.54332790e+00 -8.11233578e-01  1.98387012e+00  1.54332790e+00 -8.11233578e-01
  1.98387012e+00  1.54332790e+00 -8.11233578e-01  1.98387012e+00  1.54332790e+00
 -8.11233578e-01  1.98387012e+00  1.54332790e+00 -8.11233578e-01  1.98387012e+00
  1.54332790e+00 -8.11233578e-01  1.98387012e+00  1.54332790e+00 -8.11233578e-01
  1.98387012e+00  1.54332790e+00 -7.32703698e-01 -4.80450168e-01  1.04175910e+00
 -7.32703698e-01 -4.80450168e-01  1.04175910e+00 -7.32703698e-01 -4.80450168e-01
  1.04175910e+00 -7.32703698e-01 -4.80450168e-01  1.04175910e+00 -7.32703698e-01
 -4.80450168e-01  1.04175910e+00 -7.32703698e-01 -4.80450168e-01  1.04175910e+00
 -7.32703698e-01 -4.80450168e-01  1.04175910e+00 -7.32703698e-01 -4.80450168e-01
  1.04175910e+00 -1.18689032e+00 -1.86329958e+00  2.49428866e+00 -1.18689032e+00
 -1.86329958e+00  2.49428866e+00  4.62653405e+00 -2.41479748e+00 -4.66895515e-01
  4.62653405e+00 -2.41479748e+00 -4.66895515e-01  4.62653405e+00 -2.41479748e+00
 -4.66895515e-01  4.62653405e+00 -2.41479748e+00 -4.66895515e-01  4.62653405e+00
 -2.41479748e+00 -4.66895515e-01  4.62653405e+00 -2.41479748e+00 -4.66895515e-01
  4.62653405e+00 -2.41479748e+00 -4.66895515e-01  4.62653405e+00 -2.41479748e+00
 -4.66895515e-01 -1.61507199e+00  3.18888758e+00  4.51703320e+00 -1.61507199e+00
  3.18888758e+00  4.51703320e+00 -1.61507199e+00  3.18888758e+00  4.51703320e+00
 -1.61507199e+00  3.18888758e+00  4.51703320e+00 -1.61507199e+00  3.18888758e+00
  4.51703320e+00 -1.61507199e+00  3.18888758e+00  4.51703320e+00 -1.61507199e+00
  3.18888758e+00  4.51703320e+00 -1.61507199e+00  3.18888758e+00  4.51703320e+00
 -1.61507199e+00  3.18888758e+00  4.51703320e+00 -1.61507199e+00  3.18888758e+00
  4.51703320e+00 -3.82964382e-01  3.44916244e+00  1.78173532e-01 -3.82964382e-01
  3.44916244e+00  1.78173532e-01  6.06428122e+00 -3.90098547e+00 -3.57154145e-01
  6.06428122e+00 -3.90098547e+00 -3.57154145e-01  4.50150832e+00 -1.51689630e+00
  1.39502538e+00  4.50150832e+00 -1.51689630e+00  1.39502538e+00  5.28737828e+00
 -9.92341378e-01 -1.81867766e+00  5.28737828e+00 -9.92341378e-01 -1.81867766e+00
  2.27391676e+00 -4.48230282e+00 -3.12230556e+00  2.27391676e+00 -4.48230282e+00
 -3.12230556e+00  1.47556068e+00 -4.99459828e+00  6.89760977e-02  1.47556068e+00
 -4.99459828e+00  6.89760977e-02  4.45340350e-01  2.87036030e-01 -3.45916513e+00
  4.45340350e-01  2.87036030e-01 -3.45916513e+00  4.45340350e-01  2.87036030e-01
 -3.45916513e+00  4.45340350e-01  2.87036030e-01 -3.45916513e+00  4.45340350e-01
  2.87036030e-01 -3.45916513e+00  4.45340350e-01  2.87036030e-01 -3.45916513e+00
  4.45340350e-01  2.87036030e-01 -3.45916513e+00  4.45340350e-01  2.87036030e-01
 -3.45916513e+00 -2.23376918e+00 -3.15380082e+00 -2.30044119e+00 -2.23376918e+00
 -3.15380082e+00 -2.30044119e+00 -2.23376918e+00 -3.15380082e+00 -2.30044119e+00
 -2.23376918e+00 -3.15380082e+00 -2.30044119e+00 -2.23376918e+00 -3.15380082e+00
 -2.30044119e+00 -2.23376918e+00 -3.15380082e+00 -2.30044119e+00 -2.23376918e+00
 -3.15380082e+00 -2.30044119e+00 -2.23376918e+00 -3.15380082e+00 -2.30044119e+00
 -3.67971166e+00 -2.04420263e+00 -2.52998888e+00 -3.67971166e+00 -2.04420263e+00
 -2.52998888e+00  8.58332166e-01  1.82570594e+00 -5.09867478e+00  8.58332166e-01
  1.82570594e+00 -5.09867478e+00  8.58332166e-01  1.82570594e+00 -5.09867478e+00
  8.58332166e-01  1.82570594e+00 -5.09867478e+00  8.58332166e-01  1.82570594e+00
 -5.09867478e+00  8.58332166e-01  1.82570594e+00 -5.09867478e+00  8.58332166e-01
  1.82570594e+00 -5.09867478e+00  8.58332166e-01  1.82570594e+00 -5.09867478e+00
  1.22598652e+00  3.17034169e+00 -6.55785716e+00  1.22598652e+00  3.17034169e+00
 -6.55785716e+00
Total Energy                               R     -8.074949191343620e+02
Alpha Orbital Energies                     R   N=         193
 -1.01561646e+02 -1.91763515e+01 -1.02932630e+01 -1.02616620e+01 -1.02194079e+01
 -1.02119843e+01 -1.02090782e+01 -1.02022202e+01 -1.01863209e+01 -9.47707491e+00
 -7.24104380e+00 -7.23154680e+00 -7.23099013e+00 -1.04661624e+00 -8.83508213e-01
 -8.27407440e-01 -7.65274641e-01 -7.60491138e-01 -6.92882780e-01 -6.20678175e-01
 -6.04987594e-01 -5.51672504e-01 -5.30360889e-01 -5.10657540e-01 -4.71374019e-01
 -4.57083921e-01 -4.42754688e-01 -4.09558654e-01 -3.93895537e-01 -3.75867700e-01
 -3.72260248e-01 -3.58749224e-01 -3.53071389e-01 -3.26733881e-01 -3.16495953e-01
 -2.94552033e-01 -2.90460208e-01 -2.67307047e-01 -2.80592706e-02  1.65031696e-04
  5.50429408e-03  9.13537089e-03  1.23366089e-02  1.54382936e-02  1.95265870e-02
  2.58436623e-02  3.51985649e-02  4.48692572e-02  6.27846436e-02  6.71192119e-02
  7.48070185e-02  7.88282260e-02  8.65536960e-02  9.21469667e-02  9.90787532e-02
  1.03452012e-01  1.06731544e-01  1.13416314e-01  1.18340924e-01  1.25936853e-01
  1.31355883e-01  1.37259394e-01  1.42094197e-01  1.48057407e-01  1.59620495e-01
  1.63191019e-01  1.66009066e-01  1.76765528e-01  1.80822805e-01  1.87480511e-01
  1.88966329e-01  1.93845195e-01  2.08349691e-01  2.27269991e-01  2.38081617e-01
  2.49258189e-01  2.51691406e-01  2.58595449e-01  2.60528202e-01  2.69051688e-01
  2.76928314e-01  2.87510346e-01  2.88054328e-01  3.05412075e-01  3.40832051e-01
  3.45382364e-01  3.54121901e-01  3.59000382e-01  3.70414821e-01  3.77005497e-01
  4.03267842e-01  4.10752108e-01  4.62687955e-01  5.42810307e-01  5.65928323e-01
  6.14220756e-01  6.20797388e-01  6.21807071e-01  6.36503929e-01  6.43570910e-01
  6.64659559e-01  6.79192787e-01  6.92406556e-01  6.98907279e-01  7.05877600e-01
  7.39950939e-01  7.52264613e-01  7.55037034e-01  7.75675604e-01  7.87071518e-01
  8.07435898e-01  8.26949012e-01  8.40619435e-01  8.55575069e-01  8.69378269e-01
  8.77884255e-01  8.96462363e-01  9.05871612e-01  9.22311132e-01  9.49938344e-01
  9.70802380e-01  9.86292038e-01  1.00237024e+00  1.01523387e+00  1.04648751e+00
  1.05485650e+00  1.06647859e+00  1.07613832e+00  1.09693021e+00  1.12565884e+00
  1.13725844e+00  1.15547324e+00  1.18122228e+00  1.19935461e+00  1.25655343e+00
  1.27649624e+00  1.28832311e+00  1.31547945e+00  1.33785285e+00  1.38306866e+00
  1.40247068e+00  1.48716017e+00  1.51433642e+00  1.53680882e+00  1.55657070e+00
  1.57824385e+00  1.61492943e+00  1.62895406e+00  1.64768850e+00  1.67861207e+00
  1.74702538e+00  1.77065109e+00  1.80632966e+00  1.84928902e+00  1.87418107e+00
  1.88988328e+00  1.94572557e+00  1.94962758e+00  1.97384418e+00  2.00581325e+00
  2.01888243e+00  2.02653250e+00  2.06830505e+00  2.10973912e+00  2.15882092e+00
  2.18773888e+00  2.21262440e+00  2.26540061e+00  2.32422798e+00  2.33932676e+00
  2.37813005e+00  2.39424382e+00  2.44182018e+00  2.52616038e+00  2.54149364e+00
  2.57955969e+00  2.63061053e+00  2.69458029e+00  2.75929405e+00  2.78609541e+00
  2.81118427e+00  2.97654743e+00  3.05101468e+00  3.40144369e+00  4.13365756e+00
  4.17312966e+00  4.30323266e+00  4.31849645e+00  4.37522348e+00  4.39954395e+00
  4.45421023e+00  4.56022662e+00  4.89285952e+00
Alpha MO coefficients                      R   N=       37249
  1.71335792e-07  4.43884692e-07 -2.82318576e-07  3.92774152e-07 -1.45206804e-06
  2.87122980e-06 -4.51240915e-06 -6.41672020e-06  4.13737903e-06  1.33677826e-06
 -2.67076962e-07  2.73931230e-07 -4.49304376e-07  1.05137771e-06 -1.17310459e-06
  1.41586150e-04  4.34933043e-05  2.42024850e-05  3.47953137e-05 -1.45775776e-06
 -8.93096142e-06 -1.37581833e-07 -3.02276985e-06  1.25130760e-07  3.87253375e-05
 -2.55882489e-06  3.20810907e-05 -8.59690268e-06 -2.42166754e-06 -4.14306874e-06
  7.00636627e-06 -1.05905722e-07 -3.49570543e-06  2.58997875e-06  2.73312682e-04
  4.79660591e-05  6.14374580e-05 -3.61396478e-04 -4.76994984e-06  8.42173591e-05
 -1.42425892e-05  1.90523445e-05  4.97069826e-05  1.23157369e-04 -7.79551526e-06
 -6.99724787e-05  2.96603847e-05 -3.17200963e-05 -2.76463251e-06 -6.78229789e-05
  9.97662118e-06  1.15666098e-05 -3.24680823e-05  4.10173422e-04 -8.96378712e-05
  1.25841092e-04  3.14172614e-04 -2.88903459e-06  1.21481548e-05  3.53703582e-06
 -1.24017844e-05 -1.44639992e-05 -6.16006404e-05  1.35848819e-05 -4.84689682e-05
 -3.50882293e-05 -1.44676277e-05 -1.41952436e-05 -2.54079267e-05  7.75640245e-06
  2.51003122e-06 -2.88241750e-05  2.43770620e-04  1.42714066e-05 -1.54371723e-04
 -7.51638923e-05 -2.19409504e-06  3.97555337e-06  7.51079576e-08  5.58679643e-07
  6.75085776e-07 -1.29979135e-06  6.84544331e-07 -5.81121538e-06 -3.59457186e-06
  7.22926135e-06 -1.29133571e-05  8.38852670e-08 -2.06272200e-07  1.60892471e-08
  2.81349101e-07 -5.48910093e-07 -7.86704991e-08 -1.25155039e-04  2.67033542e-05
  1.92256764e-05  1.13806312e-05  9.95997083e-01  1.51474756e-02  1.13645404e-05
 -1.85575534e-05 -4.21226416e-05 -2.10778534e-02 -2.85737654e-06  7.64164009e-06
  1.02677542e-05  1.93581960e-03 -7.82471762e-06  1.77728173e-05  2.93457268e-05
  7.52121533e-03  7.51830171e-03  7.51766693e-03  1.38256742e-06  1.14687678e-06
 -5.27260933e-06 -7.99120616e-04 -2.73186315e-05  3.43366747e-05  1.12028929e-04
 -2.57641206e-05  3.52613022e-05  7.77274421e-07  7.01451844e-06 -4.12463688e-06
  2.96988780e-05  1.54878193e-06 -1.91878423e-05  2.23286914e-06 -1.35461488e-05
 -7.24497186e-07 -4.64765803e-06  5.22948170e-08  1.97407343e-06  9.50664244e-07
 -2.94534945e-06 -3.66436513e-06  2.21794654e-05  1.09486018e-05  5.30134929e-05
 -3.40744043e-05 -1.67006610e-06  4.71294788e-07 -1.28677230e-06  1.16441569e-07
  1.76120791e-07 -1.80366807e-07  2.91118447e-04  8.04611462e-05  3.98953438e-04
 -1.34917457e-04  6.50361158e-07  2.91876929e-06  1.01379620e-07  7.15592433e-07
  1.18182463e-06 -1.38207183e-05  1.05359887e-06 -5.89890621e-06 -6.64239584e-06
  3.39569574e-06  1.19916065e-06  1.34073015e-06  5.16994643e-08 -8.56081415e-08
 -5.78724185e-07 -6.77724444e-06  3.75116181e-06  5.40225703e-06  2.67961696e-05
 -2.63927834e-07  5.02282527e-06  1.42849589e-06  4.89919395e-06  6.11796344e-07
  1.94164465e-07  2.17876963e-07 -8.64807822e-05  5.31802764e-06  2.31224907e-05
 -3.59880327e-05  2.49889949e-06  3.36316517e-06  1.31073613e-06 -4.62579305e-08
  1.36848882e-07  1.30379190e-06 -7.41765267e-04  1.79789770e-05  5.61155653e-05
 -1.27491725e-04 -2.16301055e-07 -1.02112776e-05 -1.93268155e-05 -1.59244756e-04
  1.70335883e-05 -2.56623318e-05 -8.81191478e-06  8.02038881e-05  1.70239829e-04
 -4.19013375e-05  5.76906540e-05  6.78113307e-05 -4.15722811e-05 -1.63517965e-05
  1.45117022e-05  3.18168082e-05  9.26335185e-07  1.42860302e-02 -2.13313279e-03
  1.60409993e-03 -7.00808797e-05  3.21618490e-05  9.07781423e-05  2.23280482e-04
  1.91611549e-04  8.92527819e-05 -8.57510654e-05  1.34042692e-04 -7.93659495e-04
  1.87395097e-04 -2.90589504e-04 -1.12655213e-04 -4.18282737e-05 -2.48053860e-04
 -1.28805330e-04 -7.39250575e-05 -7.71490150e-02 -8.51899769e-04 -2.16851367e-03
  2.04699552e-03  1.53606716e-06  6.77899420e-06 -8.77819491e-06  1.35989623e-05
 -3.65297749e-06 -2.89895368e-04 -6.49665959e-05  1.16800482e-04  5.64775876e-05
  6.37271266e-06 -8.62652671e-06  4.00008735e-06  1.98258046e-05 -7.42096997e-07
  4.99926316e-06 -6.55504224e-03 -5.12349038e-05  1.70950336e-03  1.50983455e-03
 -1.72362225e-05 -1.49646419e-04 -4.73566031e-05 -2.42261600e-06  4.29298175e-06
  6.61914642e-04  2.52772428e-04  2.50746861e-04 -1.84423076e-04 -3.50922277e-06
  4.69015499e-06  2.86231186e-05  3.59405021e-05  3.07541268e-05  3.99040692e-05
  2.60802983e-02  7.80776737e-04 -1.55394969e-03 -6.01813811e-03 -2.56624949e-06
  1.41918697e-04 -1.40235393e-05 -4.57869036e-05  3.56777702e-05  2.88048752e-06
  5.31231419e-06  2.60337639e-04 -2.31133910e-04  1.13757685e-04 -1.93876572e-05
 -2.39896719e-05 -4.17412858e-05 -1.82420796e-05 -1.42723395e-05 -5.19145830e-06
 -5.88670257e-06 -2.07519574e-03  5.36702457e-04  9.49022012e-05  1.20758914e-04
  1.31639573e-08 -9.38490911e-08 -4.95262135e-08 -1.20447023e-07 -6.61441232e-07
 -2.02508124e-07 -4.05182431e-07  1.15923720e-06  4.07191110e-06 -1.92434199e-05
  1.22352516e-05 -1.06814725e-05 -2.12592500e-06 -4.90493395e-08  2.60587148e-06
 -1.88208156e-06 -2.36206629e-06 -5.30241301e-07  2.91493926e-06  2.75819440e-04
 -3.80123499e-05 -3.12413218e-04 -7.60142138e-06  8.60056622e-06  9.96864958e-06
 -6.44705973e-06  1.91690382e-04 -2.06613438e-05  6.66541673e-05 -1.57412378e-05
  5.04947105e-05 -3.69872736e-05  1.32144501e-04 -4.96169961e-05  1.81470563e-04
 -9.96012078e-06 -1.23018420e-04 -3.10838229e-05  1.94982633e-05 -3.13186727e-05
  5.13031747e-05 -4.59578867e-05 -5.69647046e-04  8.14772468e-04  4.06867057e-05
  3.02463211e-05 -3.55370650e-06  6.15093165e-05 -1.97256970e-05 -1.82604903e-05
  1.11293018e-02 -4.69866803e-03 -1.55140178e-02  1.50783796e-02 -9.92536276e-01
 -2.51654506e-02  1.21845401e-04 -1.15999879e-03 -1.43048455e-04 -1.59615547e-02
 -7.94556630e-05  1.01017183e-03  1.22255113e-04  8.85369780e-03  8.81096970e-03
  8.69110418e-03  9.09429333e-05  6.58148707e-05  4.96222189e-05  1.11992931e-02
  1.17873654e-03 -7.89438015e-04  2.78759133e-04 -3.67850699e-04  6.26975894e-04
 -5.27507281e-06 -3.06549111e-05 -2.30038825e-05  2.40375636e-07 -8.11109817e-06
  8.83539375e-04 -8.18332514e-05 -3.50266938e-04  2.73428328e-04  1.57383480e-06
  8.29149181e-06 -2.45216443e-05  1.07526253e-05 -1.34313271e-05  4.97474783e-06
  2.78184585e-02 -6.32013058e-04 -2.56606890e-03  3.18353064e-03  1.10586170e-05
  8.29387181e-05  9.58116413e-04 -3.79131365e-04 -1.68535965e-04  2.15921632e-04
 -8.11310394e-05  7.32367048e-03 -2.54899160e-03  2.09736373e-03 -2.38645473e-04
 -1.78975538e-04 -9.73144494e-05 -1.34089855e-04  3.59414441e-05  5.63578427e-05
  4.32027955e-05  4.30862311e-03  3.48646261e-03  8.67605194e-04  1.42878556e-03
  9.93753295e-01  5.19044059e-02 -4.53727858e-04  6.41772720e-06 -3.02656010e-04
 -4.48394140e-02 -5.09841523e-04 -5.32821277e-03  3.62125173e-03 -7.90528800e-03
 -8.05238764e-03 -7.98235114e-03 -3.32065330e-06  2.16914215e-05 -5.61584814e-06
 -6.98796264e-02 -5.15607505e-03 -1.50850566e-02  1.13380134e-02  3.39954757e-05
  1.48290438e-04  1.78156989e-05  1.75987043e-04 -4.66879759e-05 -3.29133630e-03
 -6.11729191e-04  9.43152549e-04  2.54410933e-03 -4.15539346e-06 -3.60953788e-05
  2.13793983e-06  2.20916611e-05 -1.07641902e-06 -1.35274333e-04 -1.29447325e-02
  2.64145281e-04  6.29267067e-04 -2.23738557e-03  1.41584508e-03 -4.93719989e-04
 -1.34822104e-05 -1.29161843e-04 -7.65174443e-06  1.02536945e-02  1.42815481e-03
  9.52985750e-04 -5.92340086e-03 -2.26254995e-04 -6.03254870e-05 -1.95964662e-04
  2.90812562e-05  2.10489344e-05 -5.12796875e-05  2.60893890e-03 -4.18442415e-04
  7.15719559e-03  4.75462012e-03 -8.42276783e-05  1.72078831e-03 -5.53201815e-05
 -1.30894765e-04  1.48756067e-04 -1.53238361e-05 -1.38115314e-05  1.30511324e-04
  4.45215682e-05  1.75718157e-04  3.03368122e-04 -7.42616690e-05 -4.19665420e-06
 -1.18799370e-04 -5.83653185e-05 -5.56830559e-06  3.25633848e-05 -5.61307968e-03
  8.31128697e-04  9.49603578e-04  3.60947005e-04 -5.65425210e-07 -2.22403317e-05
  5.31786163e-06 -1.60658915e-05 -1.52034922e-05 -3.59957205e-05 -3.77183553e-05
  1.12807921e-04  1.18094977e-04 -6.43400938e-04 -6.73603639e-05 -1.73272955e-04
  2.36067311e-04 -5.63480339e-05 -7.42085221e-06 -7.57191597e-05 -2.10687505e-06
  1.11298199e-05  2.26742272e-05  2.81305234e-03  2.50415091e-04  3.02878190e-04
 -7.77614818e-04  1.85608777e-04  9.33707791e-04 -4.35320369e-05  2.50466717e-04
  4.52408596e-06 -4.75850679e-04  3.41492419e-05 -3.76489920e-04 -1.79396154e-04
 -6.90491197e-04 -2.12434252e-04 -7.17697579e-04  1.75878435e-03  4.23849285e-05
  7.54519700e-05  1.28610680e-04 -2.04674631e-04  8.37985106e-04 -4.23378321e-03
 -1.35790915e-02  1.43466528e-02 -3.47443263e-05 -3.36501594e-04 -3.81720042e-04
 -6.09097166e-05  1.08661623e-04  3.37537435e-04 -3.44785929e-02 -1.10278552e-02
 -4.23107233e-02  4.68135324e-02 -1.79506407e-04 -6.36634057e-04 -3.13283023e-05