Generated by Psi4
     FORCE                           RHF                       TESTBAS
Number of atoms                            I               25
Charge                                     I                0
Multiplicity                               I                1
Number of electrons                        I               90
Number of alpha electrons                  I               45
Number of beta electrons                   I               45
Number of basis functions                  I              254
Number of independent functions            I              254
Atomic numbers                             I   N=          25
           6           6           6           1           6           6
           1           1           6           1           1           6
           1           1           6           1           1           1
           1           8           6           8           7           1
           1
Nuclear charges                            R   N=          25
  6.00000000e+00  6.00000000e+00  6.00000000e+00  1.00000000e+00  6.00000000e+00
  6.00000000e+00  1.00000000e+00  1.00000000e+00  6.00000000e+00  1.00000000e+00
  1.00000000e+00  6.00000000e+00  1.00000000e+00  1.00000000e+00  6.00000000e+00
  1.00000000e+00  1.00000000e+00  1.00000000e+00  1.00000000e+00  8.00000000e+00
  6.00000000e+00  8.00000000e+00  7.00000000e+00  1.00000000e+00  1.00000000e+00
Current cartesian coordinates              R   N=          75
  1.08101926e+00  3.11301539e-01 -6.74273807e-01  2.17993042e+00  2.75554095e+00
 -1.42842698e+00  3.13293872e+00  4.73902224e+00 -2.05279117e+00  3.97871894e+00
  6.47440977e+00 -2.64184518e+00  1.79820492e+00 -1.71461368e+00 -2.66218115e+00
  8.67207678e-01 -4.36336690e+00 -1.92722134e+00  3.86538236e+00 -1.70582625e+00
 -2.83612175e+00  1.02173534e+00 -1.13418831e+00 -4.49088440e+00  1.80384222e+00
 -5.13423663e+00  7.09167801e-01  1.52390281e+00 -5.71931901e+00 -3.35274579e+00
 -1.20407592e+00 -4.39562600e+00 -1.97181060e+00  1.06647954e+00 -3.15704517e+00
  2.70209463e+00  3.87441488e+00 -5.33986674e+00  6.76219568e-01  1.03125871e+00
 -6.98785570e+00  1.22614585e+00  2.00149190e+00 -5.03071598e-01  1.98189602e+00
  1.86014040e+00 -3.66168003e+00  4.55049726e+00 -9.94962885e-01 -3.13028230e+00
  2.92638068e+00  4.07628769e+00 -4.72032295e-01  1.93743630e+00  1.40952807e+00
  8.95697020e-01  3.38517747e+00 -1.68084983e+00  3.76289868e-01 -7.91690441e-01
 -3.24184009e+00  1.79606110e+00  7.02858388e-01 -5.42547288e+00  1.14271651e+00
  9.66269042e-01 -2.21184943e+00  3.88869628e+00  1.84651168e+00 -6.96114938e-01
  4.74911571e+00  1.05349619e+00 -3.50686717e+00  5.04265928e+00  2.65101720e+00
Integer atomic weights                     I   N=          25
          12          12          12           1          12          12
           1           1          12           1           1          12
           1           1          12           1           1           1
           1          15          12          15          14           1
           1
Real atomic weights                        R   N=          25
  1.20000000e+01  1.20000000e+01  1.20000000e+01  1.00782503e+00  1.20000000e+01
  1.20000000e+01  1.00782503e+00  1.00782503e+00  1.20000000e+01  1.00782503e+00
  1.00782503e+00  1.20000000e+01  1.00782503e+00  1.00782503e+00  1.20000000e+01
  1.00782503e+00  1.00782503e+00  1.00782503e+00  1.00782503e+00  1.59949146e+01
  1.20000000e+01  1.59949146e+01  1.40030740e+01  1.00782503e+00  1.00782503e+00
Number of primitive shells                 I              256
Number of contracted shells                I              122
Pure/Cartesian d shells                    I                1
Pure/Cartesian f shells                    I                1
Highest angular momentum                   I                2
Largest degree of contraction              I                6
Shell types                                I   N=         122
           0           0           1           0           1           2
           0           1           0           0           1           0
           1           2           0           1           0           0
           1           0           1           2           0           1
           0           0           0           0           1           0
           1           2           0           1           0           0
           1           0           1           2           0           1
           0           0           0           0           0           0
           1           0           1           2           0           1
           0           0           0           0           0           0
           1           0           1           2           0           1
           0           0           0           0           0           0
           1           0           1           2           0           1
           0           0           0           0           0           0
           0           0           0           0           1           0
           1           2           0           1           0           0
           1           0           1           2           0           1
           0           0           1           0           1           2
           0           1           0           0           1           0
           1           2           0           1           0           0
           0           0
Number of primitives per shell             I   N=         122
           6           3           3           1           1           1
           1           1           6           3           3           1
           1           1           1           1           6           3
           3           1           1           1           1           1
           3           1           6           3           3           1
           1           1           1           1           6           3
           3           1           1           1           1           1
           3           1           3           1           6           3
           3           1           1           1           1           1
           3           1           3           1           6           3
           3           1           1           1           1           1
           3           1           3           1           6           3
           3           1           1           1           1           1
           3           1           3           1           3           1
           3           1           6           3           3           1
           1           1           1           1           6           3
           3           1           1           1           1           1
           6           3           3           1           1           1
           1           1           6           3           3           1
           1           1           1           1           3           1
           3           1
Shell to atom map                          I   N=         122
           1           1           1           1           1           1
           1           1           2           2           2           2
           2           2           2           2           3           3
           3           3           3           3           3           3
           4           4           5           5           5           5
           5           5           5           5           6           6
           6           6           6           6           6           6
           7           7           8           8           9           9
           9           9           9           9           9           9
          10          10          11          11          12          12
          12          12          12          12          12          12
          13          13          14          14          15          15
          15          15          15          15          15          15
          16          16          17          17          18          18
          19          19          20          20          20          20
          20          20          20          20          21          21
          21          21          21          21          21          21
          22          22          22          22          22          22
          22          22          23          23          23          23
          23          23          23          23          24          24
          25          25
Primitive exponents                        R   N=         256
  3.04752490e+03  4.57369510e+02  1.03948690e+02  2.92101550e+01  9.28666300e+00
  3.16392700e+00  7.86827240e+00  1.88128850e+00  5.44249300e-01  7.86827240e+00
  1.88128850e+00  5.44249300e-01  1.68714400e-01  1.68714400e-01  8.00000000e-01
  4.38000000e-02  4.38000000e-02  3.04752490e+03  4.57369510e+02  1.03948690e+02
  2.92101550e+01  9.28666300e+00  3.16392700e+00  7.86827240e+00  1.88128850e+00
  5.44249300e-01  7.86827240e+00  1.88128850e+00  5.44249300e-01  1.68714400e-01
  1.68714400e-01  8.00000000e-01  4.38000000e-02  4.38000000e-02  3.04752490e+03
  4.57369510e+02  1.03948690e+02  2.92101550e+01  9.28666300e+00  3.16392700e+00
  7.86827240e+00  1.88128850e+00  5.44249300e-01  7.86827240e+00  1.88128850e+00
  5.44249300e-01  1.68714400e-01  1.68714400e-01  8.00000000e-01  4.38000000e-02
  4.38000000e-02  1.87311370e+01  2.82539370e+00  6.40121700e-01  1.61277800e-01
  3.04752490e+03  4.57369510e+02  1.03948690e+02  2.92101550e+01  9.28666300e+00
  3.16392700e+00  7.86827240e+00  1.88128850e+00  5.44249300e-01  7.86827240e+00
  1.88128850e+00  5.44249300e-01  1.68714400e-01  1.68714400e-01  8.00000000e-01
  4.38000000e-02  4.38000000e-02  3.04752490e+03  4.57369510e+02  1.03948690e+02
  2.92101550e+01  9.28666300e+00  3.16392700e+00  7.86827240e+00  1.88128850e+00
  5.44249300e-01  7.86827240e+00  1.88128850e+00  5.44249300e-01  1.68714400e-01
  1.68714400e-01  8.00000000e-01  4.38000000e-02  4.38000000e-02  1.87311370e+01
  2.82539370e+00  6.40121700e-01  1.61277800e-01  1.87311370e+01  2.82539370e+00
  6.40121700e-01  1.61277800e-01  3.04752490e+03  4.57369510e+02  1.03948690e+02
  2.92101550e+01  9.28666300e+00  3.16392700e+00  7.86827240e+00  1.88128850e+00
  5.44249300e-01  7.86827240e+00  1.88128850e+00  5.44249300e-01  1.68714400e-01
  1.68714400e-01  8.00000000e-01  4.38000000e-02  4.38000000e-02  1.87311370e+01
  2.82539370e+00  6.40121700e-01  1.61277800e-01  1.87311370e+01  2.82539370e+00
  6.40121700e-01  1.61277800e-01  3.04752490e+03  4.57369510e+02  1.03948690e+02
  2.92101550e+01  9.28666300e+00  3.16392700e+00  7.86827240e+00  1.88128850e+00
  5.44249300e-01  7.86827240e+00  1.88128850e+00  5.44249300e-01  1.68714400e-01
  1.68714400e-01  8.00000000e-01  4.38000000e-02  4.38000000e-02  1.87311370e+01
  2.82539370e+00  6.40121700e-01  1.61277800e-01  1.87311370e+01  2.82539370e+00
  6.40121700e-01  1.61277800e-01  3.04752490e+03  4.57369510e+02  1.03948690e+02
  2.92101550e+01  9.28666300e+00  3.16392700e+00  7.86827240e+00  1.88128850e+00
  5.44249300e-01  7.86827240e+00  1.88128850e+00  5.44249300e-01  1.68714400e-01
  1.68714400e-01  8.00000000e-01  4.38000000e-02  4.38000000e-02  1.87311370e+01
  2.82539370e+00  6.40121700e-01  1.61277800e-01  1.87311370e+01  2.82539370e+00
  6.40121700e-01  1.61277800e-01  1.87311370e+01  2.82539370e+00  6.40121700e-01
  1.61277800e-01  1.87311370e+01  2.82539370e+00  6.40121700e-01  1.61277800e-01
  5.48467170e+03  8.25234950e+02  1.88046960e+02  5.29645000e+01  1.68975700e+01
  5.79963530e+00  1.55396160e+01  3.59993360e+00  1.01376180e+00  1.55396160e+01
  3.59993360e+00  1.01376180e+00  2.70005800e-01  2.70005800e-01  8.00000000e-01
  8.45000000e-02  8.45000000e-02  3.04752490e+03  4.57369510e+02  1.03948690e+02
  2.92101550e+01  9.28666300e+00  3.16392700e+00  7.86827240e+00  1.88128850e+00
  5.44249300e-01  7.86827240e+00  1.88128850e+00  5.44249300e-01  1.68714400e-01
  1.68714400e-01  8.00000000e-01  4.38000000e-02  4.38000000e-02  5.48467170e+03
  8.25234950e+02  1.88046960e+02  5.29645000e+01  1.68975700e+01  5.79963530e+00
  1.55396160e+01  3.59993360e+00  1.01376180e+00  1.55396160e+01  3.59993360e+00
  1.01376180e+00  2.70005800e-01  2.70005800e-01  8.00000000e-01  8.45000000e-02
  8.45000000e-02  4.17351100e+03  6.27457900e+02  1.42902100e+02  4.02343300e+01
  1.28202100e+01  4.39043700e+00  1.16263580e+01  2.71628000e+00  7.72218000e-01
  1.16263580e+01  2.71628000e+00  7.72218000e-01  2.12031300e-01  2.12031300e-01
  8.00000000e-01  6.39000000e-02  6.39000000e-02  1.87311370e+01  2.82539370e+00
  6.40121700e-01  1.61277800e-01  1.87311370e+01  2.82539370e+00  6.40121700e-01
  1.61277800e-01
Contraction coefficients                   R   N=         256
  1.83470016e-03  1.40373012e-02  6.88426061e-02  2.32184421e-01  4.67941342e-01
  3.62312032e-01 -1.19332409e-01 -1.60854212e-01  1.14345648e+00  6.89990956e-02
  3.16423980e-01  7.44308252e-01  1.00000000e+00  1.00000000e+00  1.00000000e+00
  1.00000000e+00  1.00000000e+00  1.83470016e-03  1.40373012e-02  6.88426061e-02
  2.32184421e-01  4.67941342e-01  3.62312032e-01 -1.19332409e-01 -1.60854212e-01
  1.14345648e+00  6.89990956e-02  3.16423980e-01  7.44308252e-01  1.00000000e+00
  1.00000000e+00  1.00000000e+00  1.00000000e+00  1.00000000e+00  1.83470016e-03
  1.40373012e-02  6.88426061e-02  2.32184421e-01  4.67941342e-01  3.62312032e-01
 -1.19332409e-01 -1.60854212e-01  1.14345648e+00  6.89990956e-02  3.16423980e-01
  7.44308252e-01  1.00000000e+00  1.00000000e+00  1.00000000e+00  1.00000000e+00
  1.00000000e+00  3.34945995e-02  2.34726947e-01  8.13757318e-01  1.00000000e+00
  1.83470016e-03  1.40373012e-02  6.88426061e-02  2.32184421e-01  4.67941342e-01
  3.62312032e-01 -1.19332409e-01 -1.60854212e-01  1.14345648e+00  6.89990956e-02
  3.16423980e-01  7.44308252e-01  1.00000000e+00  1.00000000e+00  1.00000000e+00
  1.00000000e+00  1.00000000e+00  1.83470016e-03  1.40373012e-02  6.88426061e-02
  2.32184421e-01  4.67941342e-01  3.62312032e-01 -1.19332409e-01 -1.60854212e-01
  1.14345648e+00  6.89990956e-02  3.16423980e-01  7.44308252e-01  1.00000000e+00
  1.00000000e+00  1.00000000e+00  1.00000000e+00  1.00000000e+00  3.34945995e-02
  2.34726947e-01  8.13757318e-01  1.00000000e+00  3.34945995e-02  2.34726947e-01
  8.13757318e-01  1.00000000e+00  1.83470016e-03  1.40373012e-02  6.88426061e-02
  2.32184421e-01  4.67941342e-01  3.62312032e-01 -1.19332409e-01 -1.60854212e-01
  1.14345648e+00  6.89990956e-02  3.16423980e-01  7.44308252e-01  1.00000000e+00
  1.00000000e+00  1.00000000e+00  1.00000000e+00  1.00000000e+00  3.34945995e-02
  2.34726947e-01  8.13757318e-01  1.00000000e+00  3.34945995e-02  2.34726947e-01
  8.13757318e-01  1.00000000e+00  1.83470016e-03  1.40373012e-02  6.88426061e-02
  2.32184421e-01  4.67941342e-01  3.62312032e-01 -1.19332409e-01 -1.60854212e-01
  1.14345648e+00  6.89990956e-02  3.16423980e-01  7.44308252e-01  1.00000000e+00
  1.00000000e+00  1.00000000e+00  1.00000000e+00  1.00000000e+00  3.34945995e-02
  2.34726947e-01  8.13757318e-01  1.00000000e+00  3.34945995e-02  2.34726947e-01
  8.13757318e-01  1.00000000e+00  1.83470016e-03  1.40373012e-02  6.88426061e-02
  2.32184421e-01  4.67941342e-01  3.62312032e-01 -1.19332409e-01 -1.60854212e-01
  1.14345648e+00  6.89990956e-02  3.16423980e-01  7.44308252e-01  1.00000000e+00
  1.00000000e+00  1.00000000e+00  1.00000000e+00  1.00000000e+00  3.34945995e-02
  2.34726947e-01  8.13757318e-01  1.00000000e+00  3.34945995e-02  2.34726947e-01
  8.13757318e-01  1.00000000e+00  3.34945995e-02  2.34726947e-01  8.13757318e-01
  1.00000000e+00  3.34945995e-02  2.34726947e-01  8.13757318e-01  1.00000000e+00
  1.83109981e-03  1.39500985e-02  6.84450927e-02  2.32714275e-01  4.70192950e-01
  3.58520862e-01 -1.10777504e-01 -1.48026305e-01  1.13076704e+00  7.08742995e-02
  3.39752798e-01  7.27158595e-01  1.00000000e+00  1.00000000e+00  1.00000000e+00
  1.00000000e+00  1.00000000e+00  1.83470016e-03  1.40373012e-02  6.88426061e-02
  2.32184421e-01  4.67941342e-01  3.62312032e-01 -1.19332409e-01 -1.60854212e-01
  1.14345648e+00  6.89990956e-02  3.16423980e-01  7.44308252e-01  1.00000000e+00
  1.00000000e+00  1.00000000e+00  1.00000000e+00  1.00000000e+00  1.83109981e-03
  1.39500985e-02  6.84450927e-02  2.32714275e-01  4.70192950e-01  3.58520862e-01
 -1.10777504e-01 -1.48026305e-01  1.13076704e+00  7.08742995e-02  3.39752798e-01
  7.27158595e-01  1.00000000e+00  1.00000000e+00  1.00000000e+00  1.00000000e+00
  1.00000000e+00  1.83479944e-03  1.39949958e-02  6.85869792e-02  2.32240930e-01
  4.69069858e-01  3.60454891e-01 -1.14961023e-01 -1.69118034e-01  1.14585223e+00
  6.75800232e-02  3.23907111e-01  7.40895255e-01  1.00000000e+00  1.00000000e+00
  1.00000000e+00  1.00000000e+00  1.00000000e+00  3.34945995e-02  2.34726947e-01
  8.13757318e-01  1.00000000e+00  3.34945995e-02  2.34726947e-01  8.13757318e-01
  1.00000000e+00
Coordinates of each shell                  R   N=         366
  1.08101926e+00  3.11301539e-01 -6.74273807e-01  1.08101926e+00  3.11301539e-01
 -6.74273807e-01  1.08101926e+00  3.11301539e-01 -6.74273807e-01  1.08101926e+00
  3.11301539e-01 -6.74273807e-01  1.08101926e+00  3.11301539e-01 -6.74273807e-01
  1.08101926e+00  3.11301539e-01 -6.74273807e-01  1.08101926e+00  3.11301539e-01
 -6.74273807e-01  1.08101926e+00  3.11301539e-01 -6.74273807e-01  2.17993042e+00
  2.75554095e+00 -1.42842698e+00  2.17993042e+00  2.75554095e+00 -1.42842698e+00
  2.17993042e+00  2.75554095e+00 -1.42842698e+00  2.17993042e+00  2.75554095e+00
 -1.42842698e+00  2.17993042e+00  2.75554095e+00 -1.42842698e+00  2.17993042e+00
  2.75554095e+00 -1.42842698e+00  2.17993042e+00  2.75554095e+00 -1.42842698e+00
  2.17993042e+00  2.75554095e+00 -1.42842698e+00  3.13293872e+00  4.73902224e+00
 -2.05279117e+00  3.13293872e+00  4.73902224e+00 -2.05279117e+00  3.13293872e+00
  4.73902224e+00 -2.05279117e+00  3.13293872e+00  4.73902224e+00 -2.05279117e+00
  3.13293872e+00  4.73902224e+00 -2.05279117e+00  3.13293872e+00  4.73902224e+00
 -2.05279117e+00  3.13293872e+00  4.73902224e+00 -2.05279117e+00  3.13293872e+00
  4.73902224e+00 -2.05279117e+00  3.97871894e+00  6.47440977e+00 -2.64184518e+00
  3.97871894e+00  6.47440977e+00 -2.64184518e+00  1.79820492e+00 -1.71461368e+00
 -2.66218115e+00  1.79820492e+00 -1.71461368e+00 -2.66218115e+00  1.79820492e+00
 -1.71461368e+00 -2.66218115e+00  1.79820492e+00 -1.71461368e+00 -2.66218115e+00
  1.79820492e+00 -1.71461368e+00 -2.66218115e+00  1.79820492e+00 -1.71461368e+00
 -2.66218115e+00  1.79820492e+00 -1.71461368e+00 -2.66218115e+00  1.79820492e+00
 -1.71461368e+00 -2.66218115e+00  8.67207678e-01 -4.36336690e+00 -1.92722134e+00
  8.67207678e-01 -4.36336690e+00 -1.92722134e+00  8.67207678e-01 -4.36336690e+00
 -1.92722134e+00  8.67207678e-01 -4.36336690e+00 -1.92722134e+00  8.67207678e-01
 -4.36336690e+00 -1.92722134e+00  8.67207678e-01 -4.36336690e+00 -1.92722134e+00
  8.67207678e-01 -4.36336690e+00 -1.92722134e+00  8.67207678e-01 -4.36336690e+00
 -1.92722134e+00  3.86538236e+00 -1.70582625e+00 -2.83612175e+00  3.86538236e+00
 -1.70582625e+00 -2.83612175e+00  1.02173534e+00 -1.13418831e+00 -4.49088440e+00
  1.02173534e+00 -1.13418831e+00 -4.49088440e+00  1.80384222e+00 -5.13423663e+00
  7.09167801e-01  1.80384222e+00 -5.13423663e+00  7.09167801e-01  1.80384222e+00
 -5.13423663e+00  7.09167801e-01  1.80384222e+00 -5.13423663e+00  7.09167801e-01
  1.80384222e+00 -5.13423663e+00  7.09167801e-01  1.80384222e+00 -5.13423663e+00
  7.09167801e-01  1.80384222e+00 -5.13423663e+00  7.09167801e-01  1.80384222e+00
 -5.13423663e+00  7.09167801e-01  1.52390281e+00 -5.71931901e+00 -3.35274579e+00
  1.52390281e+00 -5.71931901e+00 -3.35274579e+00 -1.20407592e+00 -4.39562600e+00
 -1.97181060e+00 -1.20407592e+00 -4.39562600e+00 -1.97181060e+00  1.06647954e+00
 -3.15704517e+00  2.70209463e+00  1.06647954e+00 -3.15704517e+00  2.70209463e+00
  1.06647954e+00 -3.15704517e+00  2.70209463e+00  1.06647954e+00 -3.15704517e+00
  2.70209463e+00  1.06647954e+00 -3.15704517e+00  2.70209463e+00  1.06647954e+00
 -3.15704517e+00  2.70209463e+00  1.06647954e+00 -3.15704517e+00  2.70209463e+00
  1.06647954e+00 -3.15704517e+00  2.70209463e+00  3.87441488e+00 -5.33986674e+00
  6.76219568e-01  3.87441488e+00 -5.33986674e+00  6.76219568e-01  1.03125871e+00
 -6.98785570e+00  1.22614585e+00  1.03125871e+00 -6.98785570e+00  1.22614585e+00
  2.00149190e+00 -5.03071598e-01  1.98189602e+00  2.00149190e+00 -5.03071598e-01
  1.98189602e+00  2.00149190e+00 -5.03071598e-01  1.98189602e+00  2.00149190e+00
 -5.03071598e-01  1.98189602e+00  2.00149190e+00 -5.03071598e-01  1.98189602e+00
  2.00149190e+00 -5.03071598e-01  1.98189602e+00  2.00149190e+00 -5.03071598e-01
  1.98189602e+00  2.00149190e+00 -5.03071598e-01  1.98189602e+00  1.86014040e+00
 -3.66168003e+00  4.55049726e+00  1.86014040e+00 -3.66168003e+00  4.55049726e+00
 -9.94962885e-01 -3.13028230e+00  2.92638068e+00 -9.94962885e-01 -3.13028230e+00
  2.92638068e+00  4.07628769e+00 -4.72032295e-01  1.93743630e+00  4.07628769e+00
 -4.72032295e-01  1.93743630e+00  1.40952807e+00  8.95697020e-01  3.38517747e+00
  1.40952807e+00  8.95697020e-01  3.38517747e+00 -1.68084983e+00  3.76289868e-01
 -7.91690441e-01 -1.68084983e+00  3.76289868e-01 -7.91690441e-01 -1.68084983e+00
  3.76289868e-01 -7.91690441e-01 -1.68084983e+00  3.76289868e-01 -7.91690441e-01
 -1.68084983e+00  3.76289868e-01 -7.91690441e-01 -1.68084983e+00  3.76289868e-01
 -7.91690441e-01 -1.68084983e+00  3.76289868e-01 -7.91690441e-01 -1.68084983e+00
  3.76289868e-01 -7.91690441e-01 -3.24184009e+00  1.79606110e+00  7.02858388e-01
 -3.24184009e+00  1.79606110e+00  7.02858388e-01 -3.24184009e+00  1.79606110e+00
  7.02858388e-01 -3.24184009e+00  1.79606110e+00  7.02858388e-01 -3.24184009e+00
  1.79606110e+00  7.02858388e-01 -3.24184009e+00  1.79606110e+00  7.02858388e-01
 -3.24184009e+00  1.79606110e+00  7.02858388e-01 -3.24184009e+00  1.79606110e+00
  7.02858388e-01 -5.42547288e+00  1.14271651e+00  9.66269042e-01 -5.42547288e+00
  1.14271651e+00  9.66269042e-01 -5.42547288e+00  1.14271651e+00  9.66269042e-01
 -5.42547288e+00  1.14271651e+00  9.66269042e-01 -5.42547288e+00  1.14271651e+00
  9.66269042e-01 -5.42547288e+00  1.14271651e+00  9.66269042e-01 -5.42547288e+00
  1.14271651e+00  9.66269042e-01 -5.42547288e+00  1.14271651e+00  9.66269042e-01
 -2.21184943e+00  3.88869628e+00  1.84651168e+00 -2.21184943e+00  3.88869628e+00
  1.84651168e+00 -2.21184943e+00  3.88869628e+00  1.84651168e+00 -2.21184943e+00
  3.88869628e+00  1.84651168e+00 -2.21184943e+00  3.88869628e+00  1.84651168e+00
 -2.21184943e+00  3.88869628e+00  1.84651168e+00 -2.21184943e+00  3.88869628e+00
  1.84651168e+00 -2.21184943e+00  3.88869628e+00  1.84651168e+00 -6.96114938e-01
  4.74911571e+00  1.05349619e+00 -6.96114938e-01  4.74911571e+00  1.05349619e+00
 -3.50686717e+00  5.04265928e+00  2.65101720e+00 -3.50686717e+00  5.04265928e+00
  2.65101720e+00
Total Energy                               R     -5.559573877490882e+02
Alpha Orbital Energies                     R   N=         254
 -1.91952432e+01 -1.91283734e+01 -1.43693721e+01 -1.03444962e+01 -1.02952507e+01
 -1.02204854e+01 -1.02177242e+01 -1.02034434e+01 -1.02024200e+01 -1.01913066e+01
 -1.01893464e+01 -1.01885841e+01 -1.10463859e+00 -1.02047443e+00 -9.17093823e-01
 -8.52270225e-01 -7.95641945e-01 -7.59310477e-01 -7.48164196e-01 -6.57453726e-01
 -6.32415941e-01 -6.19249182e-01 -5.81251686e-01 -5.69154895e-01 -5.42149523e-01
 -5.22607381e-01 -5.09268495e-01 -4.78899085e-01 -4.63844844e-01 -4.37511118e-01
 -4.33661673e-01 -4.19093478e-01 -4.13637332e-01 -4.01044743e-01 -3.93699920e-01
 -3.73643670e-01 -3.55307350e-01 -3.34362648e-01 -3.30121249e-01 -3.26576942e-01
 -3.13088113e-01 -3.04675242e-01 -2.92276394e-01 -2.90176416e-01 -2.75816731e-01
 -1.17931365e-02 -6.61923012e-03  6.45652791e-03  9.89240773e-03  1.65737276e-02
  1.97997778e-02  2.55517266e-02  3.05188635e-02  3.57848654e-02  4.45714787e-02
  5.06907300e-02  5.59912996e-02  5.91261060e-02  7.72028802e-02  7.78126137e-02
  8.32619458e-02  8.86122832e-02  9.34954484e-02  1.01347095e-01  1.02950569e-01
  1.13701334e-01  1.17371341e-01  1.20383894e-01  1.22232956e-01  1.28648051e-01
  1.37201752e-01  1.44238148e-01  1.47736686e-01  1.56023306e-01  1.57711638e-01
  1.66287844e-01  1.70616040e-01  1.74819766e-01  1.78306961e-01  1.80120970e-01
  1.85906104e-01  1.87904686e-01  1.92068617e-01  2.00195644e-01  2.02910747e-01
  2.13615848e-01  2.17128319e-01  2.20131678e-01  2.25438256e-01  2.33679175e-01
  2.44987761e-01  2.56805264e-01  2.61904311e-01  2.67438633e-01  2.68428736e-01
  2.71148172e-01  2.82838998e-01  2.86748022e-01  2.91163858e-01  2.98392889e-01
  3.06680187e-01  3.11212249e-01  3.20296440e-01  3.22416748e-01  3.28821909e-01
  3.39864847e-01  3.46469150e-01  3.54819218e-01  3.61993088e-01  3.79395512e-01
  3.82104973e-01  3.93044353e-01  4.03089054e-01  4.13987559e-01  4.31390979e-01
  4.38089167e-01  4.54776571e-01  4.81181355e-01  4.87036496e-01  5.22591441e-01
  5.65419557e-01  6.37318091e-01  6.46619174e-01  6.65120187e-01  6.76704388e-01
  6.88560477e-01  6.97693310e-01  7.11061024e-01  7.18534997e-01  7.27077877e-01
  7.40850830e-01  7.53811742e-01  7.72507214e-01  7.85190441e-01  7.91774000e-01
  8.03374956e-01  8.18476660e-01  8.31598148e-01  8.33193949e-01  8.61174421e-01
  8.87584765e-01  8.95697798e-01  9.04493383e-01  9.20325833e-01  9.31827988e-01
  9.56768708e-01  9.67864790e-01  9.77220193e-01  9.82866637e-01  9.97288294e-01
  1.01894762e+00  1.03213701e+00  1.05730392e+00  1.07605809e+00  1.10551882e+00
  1.11876793e+00  1.12173513e+00  1.13052681e+00  1.14177184e+00  1.15983784e+00
  1.17855471e+00  1.18904736e+00  1.20626967e+00  1.22617621e+00  1.23909424e+00
  1.24384462e+00  1.26024636e+00  1.26774079e+00  1.30995518e+00  1.33004576e+00
  1.34520761e+00  1.35943831e+00  1.38876784e+00  1.40232984e+00  1.40884038e+00
  1.43955838e+00  1.44573309e+00  1.47365422e+00  1.51462278e+00  1.55332926e+00
  1.56674486e+00  1.59052300e+00  1.60474139e+00  1.61244774e+00  1.65226443e+00
  1.69414249e+00  1.71253254e+00  1.72414240e+00  1.75048766e+00  1.75469800e+00
  1.75804848e+00  1.79797599e+00  1.83280151e+00  1.83908708e+00  1.86268155e+00
  1.86611699e+00  1.88534114e+00  1.90684427e+00  1.92648488e+00  1.93703034e+00
  1.95897829e+00  1.96596121e+00  1.97252252e+00  2.00480646e+00  2.01081629e+00
  2.04560958e+00  2.04795280e+00  2.06783099e+00  2.08495856e+00  2.12710342e+00
  2.13396869e+00  2.15728072e+00  2.21751153e+00  2.25309905e+00  2.29623005e+00
  2.31846652e+00  2.32983712e+00  2.35247773e+00  2.35796373e+00  2.37430388e+00
  2.40010394e+00  2.41253809e+00  2.43742831e+00  2.48423191e+00  2.51159709e+00
  2.57313209e+00  2.61666501e+00  2.63224240e+00  2.64993850e+00  2.66690898e+00
  2.70029394e+00  2.72106215e+00  2.76334554e+00  2.77284274e+00  2.81139402e+00
  2.85667100e+00  2.89516079e+00  2.90372009e+00  3.09503837e+00  3.15504455e+00
  3.21436117e+00  3.42071592e+00  4.05336764e+00  4.21598250e+00  4.30160291e+00
  4.31421974e+00  4.34864187e+00  4.40497877e+00  4.53095841e+00  4.55866683e+00
  4.62726244e+00  4.65817043e+00  4.70608892e+00  4.94782408e+00
Alpha MO coefficients                      R   N=       64516
 -4.94970015e-05 -2.42540335e-04 -2.17963151e-04 -3.10374368e-05  1.04881283e-06
  1.24375372e-03  7.50482326e-06  6.89681849e-04 -9.27846265e-06  5.10388409e-04
 -1.17742141e-05 -4.50879128e-05 -3.45539957e-05  8.04226635e-06 -9.57169374e-06
  7.40719107e-03 -1.45045163e-02 -1.43916584e-02  2.90028832e-03  2.97816068e-06
  7.28287100e-05  1.13392047e-05 -3.45451797e-05  1.42390687e-05  4.85925027e-04
  2.84645455e-04  1.09409780e-03 -4.52004125e-04 -6.17299142e-05  4.87538743e-06
  9.00945567e-07 -3.17182279e-05  1.49220255e-05  8.50587261e-06  1.65776477e-02
 -9.65680687e-04 -9.12976720e-03  3.37121873e-03  8.89287661e-06  5.14586539e-05
  2.15666791e-05 -7.50768073e-06  1.43712792e-07 -1.27770539e-03  3.63979986e-04
  6.50074851e-04 -1.67589973e-04 -4.65498193e-06  1.60023921e-05  6.29293472e-06
 -2.48747030e-05  4.77867339e-06 -1.02357974e-05  8.80783132e-03 -1.19230954e-03
 -8.15060408e-04  5.34797676e-05 -1.39351682e-05 -2.18296624e-04  1.90522779e-05
  1.56774506e-04  3.85100313e-06  2.81185915e-05  3.71519896e-05 -1.97815263e-04
 -2.28992090e-04  4.29019311e-05 -1.65484488e-05 -5.75117840e-05  2.26555178e-05
  2.69823821e-05  4.51074705e-05  4.10905470e-05 -1.33072399e-05 -5.46699920e-03
  2.06263118e-03 -1.59183478e-03 -5.64698947e-04 -4.62386889e-07 -4.49328738e-05
 -1.84965755e-05  2.15165267e-05  1.79601515e-05 -6.14210146e-05  3.58414758e-05
  1.62729564e-04  1.70360898e-04  5.53826757e-07  4.72279214e-05  1.66259210e-05
 -4.31176930e-05 -1.78205971e-06  1.97420260e-05 -9.98783865e-03 -4.27645496e-04
 -1.71840965e-03 -1.69452970e-03  3.43057762e-05  8.42701651e-06  1.92761567e-05
  6.98343323e-05  7.30098627e-06  5.10250043e-05 -3.38025736e-06 -1.11405644e-05
 -7.82170719e-07 -5.79627041e-04  1.55917931e-04 -2.87181785e-04 -1.78680353e-05
 -4.70717884e-06 -8.76620649e-06  5.92539168e-06  5.21413277e-06  6.88422930e-06
 -6.00453277e-07  8.33425795e-03 -6.05829831e-04  1.39239906e-03 -9.11601501e-05
 -3.29487595e-05  3.44530619e-04  2.91094492e-05  2.26461768e-04 -1.28591442e-05
 -8.81988698e-05 -1.02866862e-06  4.79510768e-06  1.58191289e-05  1.50432653e-04
 -5.39121006e-05 -4.81024436e-05 -4.47137675e-04 -1.71484940e-05 -6.81381167e-07
  1.53384946e-05 -2.71622145e-05  1.23719534e-05 -1.78705754e-05 -1.04041955e-02
 -4.59486099e-04 -5.45266540e-04  2.28016729e-03  1.04913060e-05 -2.97592679e-05
  1.68627495e-06  5.69819810e-05  1.51711600e-05  8.98755463e-05 -1.23381737e-05
  1.04331793e-05 -5.34784528e-05 -4.07444431e-04 -1.63206610e-04  4.17904634e-05
  2.16994717e-04 -9.53144551e-06  2.37758364e-05  3.41333091e-05  8.95750858e-06
 -9.38618794e-06  1.14400996e-05 -2.94772775e-03  1.73407813e-03 -7.42917182e-04