Generated by Psi4
     FORCE                           RHF                       TESTBAS
Number of atoms                            I               33
Charge                                     I                0
Multiplicity                               I                1
Number of electrons                        I              118
Number of alpha electrons                  I               59
Number of beta electrons                   I               59
Number of basis functions                  I              321
Number of independent functions            I              321
Atomic numbers                             I   N=          33
           8           7           6           8           1           1
           6           6           1           1           6           6
           1           1           6           1           1           1
           1           1           6           1           1           1
           6           8           1           1           6           8
           7           1           1
Nuclear charges                            R   N=          33
  8.00000000e+00  7.00000000e+00  6.00000000e+00  8.00000000e+00  1.00000000e+00
  1.00000000e+00  6.00000000e+00  6.00000000e+00  1.00000000e+00  1.00000000e+00
  6.00000000e+00  6.00000000e+00  1.00000000e+00  1.00000000e+00  6.00000000e+00
  1.00000000e+00  1.00000000e+00  1.00000000e+00  1.00000000e+00  1.00000000e+00
  6.00000000e+00  1.00000000e+00  1.00000000e+00  1.00000000e+00  6.00000000e+00
  8.00000000e+00  1.00000000e+00  1.00000000e+00  6.00000000e+00  8.00000000e+00
  7.00000000e+00  1.00000000e+00  1.00000000e+00
Current cartesian coordinates              R   N=          99
  2.11505619e-01  3.30013046e+00 -2.04797254e+00  1.26893291e+00  6.19445801e+00
 -4.94739565e+00 -1.39903563e-01  5.72028804e+00 -2.82992804e+00 -1.46843157e+00
  7.26342907e+00 -1.75711454e+00  1.99745795e+00  4.73418245e+00 -5.93756927e+00
  8.74983688e-01  7.80543249e+00 -5.89043921e+00 -1.13093820e+00  2.57669459e+00
  2.21726992e-01 -2.67631447e-01 -6.92132643e-02  1.05249364e+00 -3.16245997e+00
  2.60174059e+00 -1.81339049e-01 -7.64216024e-01  3.98219401e+00  1.68901165e+00
  2.62537313e+00 -1.79781666e-01  1.52331228e+00  3.70593607e+00  1.59938757e+00
  3.54801416e+00  3.59263855e+00  2.04280668e-01 -2.73038661e-01  3.10075058e+00
 -2.13421559e+00  2.03238334e+00  6.57406804e+00  1.28883132e+00  3.84352362e+00
  2.79727389e+00  1.24063131e+00  5.37837313e+00  3.29330062e+00  3.57466146e+00
  3.06409340e+00  7.06584728e+00 -6.48486362e-01  4.39831776e+00  7.32409854e+00
  2.56888177e+00  5.29014001e+00  7.55929166e+00  1.70086554e+00  2.06550264e+00
 -1.77554368e+00 -7.34821583e-01  3.45835694e+00 -1.49808741e+00  6.82324569e-01
  4.94104329e+00 -1.17308214e+00 -2.56409222e+00  4.21497737e+00 -3.80553752e+00
 -8.53288313e-01  3.06333762e+00 -9.69538439e-01 -1.92679312e+00 -1.08458445e+00
 -3.39371116e-01 -4.49932447e+00 -4.11764686e-01  1.13866075e-01 -1.51447840e+00
 -2.79379915e+00 -2.98850980e+00 -1.83933685e+00 -1.51083315e+00 -2.27218933e+00
 -6.17194514e+00 -1.44485176e-01 -4.50324915e+00 -5.69633013e+00 -4.54383397e-01
 -1.34779605e+00 -8.47177375e+00  5.94120936e-01  5.19728609e-01 -8.82594277e+00
  4.16085547e-01 -2.55135499e+00 -9.94830434e+00  4.87775037e-01
Integer atomic weights                     I   N=          33
          15          14          12          15           1           1
          12          12           1           1          12          12
           1           1          12           1           1           1
           1           1          12           1           1           1
          12          15           1           1          12          15
          14           1           1
Real atomic weights                        R   N=          33
  1.59949146e+01  1.40030740e+01  1.20000000e+01  1.59949146e+01  1.00782503e+00
  1.00782503e+00  1.20000000e+01  1.20000000e+01  1.00782503e+00  1.00782503e+00
  1.20000000e+01  1.20000000e+01  1.00782503e+00  1.00782503e+00  1.20000000e+01
  1.00782503e+00  1.00782503e+00  1.00782503e+00  1.00782503e+00  1.00782503e+00
  1.20000000e+01  1.00782503e+00  1.00782503e+00  1.00782503e+00  1.20000000e+01
  1.59949146e+01  1.00782503e+00  1.00782503e+00  1.20000000e+01  1.59949146e+01
  1.40030740e+01  1.00782503e+00  1.00782503e+00
Number of primitive shells                 I              327
Number of contracted shells                I              156
Pure/Cartesian d shells                    I                1
Pure/Cartesian f shells                    I                1
Highest angular momentum                   I                2
Largest degree of contraction              I                6
Shell types                                I   N=         156
           0           0           1           0           1           2
           0           1           0           0           1           0
           1           2           0           1           0           0
           1           0           1           2           0           1
           0           0           1           0           1           2
           0           1           0           0           0           0
           0           0           1           0           1           2
           0           1           0           0           1           0
           1           2           0           1           0           0
           0           0           0           0           1           0
           1           2           0           1           0           0
           1           0           1           2           0           1
           0           0           0           0           0           0
           1           0           1           2           0           1
           0           0           0           0           0           0
           0           0           0           0           0           0
           1           0           1           2           0           1
           0           0           0           0           0           0
           0           0           1           0           1           2
           0           1           0           0           1           0
           1           2           0           1           0           0
           0           0           0           0           1           0
           1           2           0           1           0           0
           1           0           1           2           0           1
           0           0           1           0           1           2
           0           1           0           0           0           0
Number of primitives per shell             I   N=         156
           6           3           3           1           1           1
           1           1           6           3           3           1
           1           1           1           1           6           3
           3           1           1           1           1           1
           6           3           3           1           1           1
           1           1           3           1           3           1
           6           3           3           1           1           1
           1           1           6           3           3           1
           1           1           1           1           3           1
           3           1           6           3           3           1
           1           1           1           1           6           3
           3           1           1           1           1           1
           3           1           3           1           6           3
           3           1           1           1           1           1
           3           1           3           1           3           1
           3           1           3           1           6           3
           3           1           1           1           1           1
           3           1           3           1           3           1
           6           3           3           1           1           1
           1           1           6           3           3           1
           1           1           1           1           3           1
           3           1           6           3           3           1
           1           1           1           1           6           3
           3           1           1           1           1           1
           6           3           3           1           1           1
           1           1           3           1           3           1
Shell to atom map                          I   N=         156
           1           1           1           1           1           1
           1           1           2           2           2           2
           2           2           2           2           3           3
           3           3           3           3           3           3
           4           4           4           4           4           4
           4           4           5           5           6           6
           7           7           7           7           7           7
           7           7           8           8           8           8
           8           8           8           8           9           9
          10          10          11          11          11          11
          11          11          11          11          12          12
          12          12          12          12          12          12
          13          13          14          14          15          15
          15          15          15          15          15          15
          16          16          17          17          18          18
          19          19          20          20          21          21
          21          21          21          21          21          21
          22          22          23          23          24          24
          25          25          25          25          25          25
          25          25          26          26          26          26
          26          26          26          26          27          27
          28          28          29          29          29          29
          29          29          29          29          30          30
          30          30          30          30          30          30
          31          31          31          31          31          31
          31          31          32          32          33          33
Primitive exponents                        R   N=         327
  5.48467170e+03  8.25234950e+02  1.88046960e+02  5.29645000e+01  1.68975700e+01
  5.79963530e+00  1.55396160e+01  3.59993360e+00  1.01376180e+00  1.55396160e+01
  3.59993360e+00  1.01376180e+00  2.70005800e-01  2.70005800e-01  8.00000000e-01
  8.45000000e-02  8.45000000e-02  4.17351100e+03  6.27457900e+02  1.42902100e+02
  4.02343300e+01  1.28202100e+01  4.39043700e+00  1.16263580e+01  2.71628000e+00
  7.72218000e-01  1.16263580e+01  2.71628000e+00  7.72218000e-01  2.12031300e-01
  2.12031300e-01  8.00000000e-01  6.39000000e-02  6.39000000e-02  3.04752490e+03
  4.57369510e+02  1.03948690e+02  2.92101550e+01  9.28666300e+00  3.16392700e+00
  7.86827240e+00  1.88128850e+00  5.44249300e-01  7.86827240e+00  1.88128850e+00
  5.44249300e-01  1.68714400e-01  1.68714400e-01  8.00000000e-01  4.38000000e-02
  4.38000000e-02  5.48467170e+03  8.25234950e+02  1.88046960e+02  5.29645000e+01
  1.68975700e+01  5.79963530e+00  1.55396160e+01  3.59993360e+00  1.01376180e+00
  1.55396160e+01  3.59993360e+00  1.01376180e+00  2.70005800e-01  2.70005800e-01
  8.00000000e-01  8.45000000e-02  8.45000000e-02  1.87311370e+01  2.82539370e+00
  6.40121700e-01  1.61277800e-01  1.87311370e+01  2.82539370e+00  6.40121700e-01
  1.61277800e-01  3.04752490e+03  4.57369510e+02  1.03948690e+02  2.92101550e+01
  9.28666300e+00  3.16392700e+00  7.86827240e+00  1.88128850e+00  5.44249300e-01
  7.86827240e+00  1.88128850e+00  5.44249300e-01  1.68714400e-01  1.68714400e-01
  8.00000000e-01  4.38000000e-02  4.38000000e-02  3.04752490e+03  4.57369510e+02
  1.03948690e+02  2.92101550e+01  9.28666300e+00  3.16392700e+00  7.86827240e+00
  1.88128850e+00  5.44249300e-01  7.86827240e+00  1.88128850e+00  5.44249300e-01
  1.68714400e-01  1.68714400e-01  8.00000000e-01  4.38000000e-02  4.38000000e-02
  1.87311370e+01  2.82539370e+00  6.40121700e-01  1.61277800e-01  1.87311370e+01
  2.82539370e+00  6.40121700e-01  1.61277800e-01  3.04752490e+03  4.57369510e+02
  1.03948690e+02  2.92101550e+01  9.28666300e+00  3.16392700e+00  7.86827240e+00
  1.88128850e+00  5.44249300e-01  7.86827240e+00  1.88128850e+00  5.44249300e-01
  1.68714400e-01  1.68714400e-01  8.00000000e-01  4.38000000e-02  4.38000000e-02
  3.04752490e+03  4.57369510e+02  1.03948690e+02  2.92101550e+01  9.28666300e+00
  3.16392700e+00  7.86827240e+00  1.88128850e+00  5.44249300e-01  7.86827240e+00
  1.88128850e+00  5.44249300e-01  1.68714400e-01  1.68714400e-01  8.00000000e-01
  4.38000000e-02  4.38000000e-02  1.87311370e+01  2.82539370e+00  6.40121700e-01
  1.61277800e-01  1.87311370e+01  2.82539370e+00  6.40121700e-01  1.61277800e-01
  3.04752490e+03  4.57369510e+02  1.03948690e+02  2.92101550e+01  9.28666300e+00
  3.16392700e+00  7.86827240e+00  1.88128850e+00  5.44249300e-01  7.86827240e+00
  1.88128850e+00  5.44249300e-01  1.68714400e-01  1.68714400e-01  8.00000000e-01
  4.38000000e-02  4.38000000e-02  1.87311370e+01  2.82539370e+00  6.40121700e-01
  1.61277800e-01  1.87311370e+01  2.82539370e+00  6.40121700e-01  1.61277800e-01
  1.87311370e+01  2.82539370e+00  6.40121700e-01  1.61277800e-01  1.87311370e+01
  2.82539370e+00  6.40121700e-01  1.61277800e-01  1.87311370e+01  2.82539370e+00
  6.40121700e-01  1.61277800e-01  3.04752490e+03  4.57369510e+02  1.03948690e+02
  2.92101550e+01  9.28666300e+00  3.16392700e+00  7.86827240e+00  1.88128850e+00
  5.44249300e-01  7.86827240e+00  1.88128850e+00  5.44249300e-01  1.68714400e-01
  1.68714400e-01  8.00000000e-01  4.38000000e-02  4.38000000e-02  1.87311370e+01
  2.82539370e+00  6.40121700e-01  1.61277800e-01  1.87311370e+01  2.82539370e+00
  6.40121700e-01  1.61277800e-01  1.87311370e+01  2.82539370e+00  6.40121700e-01
  1.61277800e-01  3.04752490e+03  4.57369510e+02  1.03948690e+02  2.92101550e+01
  9.28666300e+00  3.16392700e+00  7.86827240e+00  1.88128850e+00  5.44249300e-01
  7.86827240e+00  1.88128850e+00  5.44249300e-01  1.68714400e-01  1.68714400e-01
  8.00000000e-01  4.38000000e-02  4.38000000e-02  5.48467170e+03  8.25234950e+02
  1.88046960e+02  5.29645000e+01  1.68975700e+01  5.79963530e+00  1.55396160e+01
  3.59993360e+00  1.01376180e+00  1.55396160e+01  3.59993360e+00  1.01376180e+00
  2.70005800e-01  2.70005800e-01  8.00000000e-01  8.45000000e-02  8.45000000e-02
  1.87311370e+01  2.82539370e+00  6.40121700e-01  1.61277800e-01  1.87311370e+01
  2.82539370e+00  6.40121700e-01  1.61277800e-01  3.04752490e+03  4.57369510e+02
  1.03948690e+02  2.92101550e+01  9.28666300e+00  3.16392700e+00  7.86827240e+00
  1.88128850e+00  5.44249300e-01  7.86827240e+00  1.88128850e+00  5.44249300e-01
  1.68714400e-01  1.68714400e-01  8.00000000e-01  4.38000000e-02  4.38000000e-02
  5.48467170e+03  8.25234950e+02  1.88046960e+02  5.29645000e+01  1.68975700e+01
  5.79963530e+00  1.55396160e+01  3.59993360e+00  1.01376180e+00  1.55396160e+01
  3.59993360e+00  1.01376180e+00  2.70005800e-01  2.70005800e-01  8.00000000e-01
  8.45000000e-02  8.45000000e-02  4.17351100e+03  6.27457900e+02  1.42902100e+02
  4.02343300e+01  1.28202100e+01  4.39043700e+00  1.16263580e+01  2.71628000e+00
  7.72218000e-01  1.16263580e+01  2.71628000e+00  7.72218000e-01  2.12031300e-01
  2.12031300e-01  8.00000000e-01  6.39000000e-02  6.39000000e-02  1.87311370e+01
  2.82539370e+00  6.40121700e-01  1.61277800e-01  1.87311370e+01  2.82539370e+00
  6.40121700e-01  1.61277800e-01
Contraction coefficients                   R   N=         327
  1.83109981e-03  1.39500985e-02  6.84450927e-02  2.32714275e-01  4.70192950e-01
  3.58520862e-01 -1.10777504e-01 -1.48026305e-01  1.13076704e+00  7.08742995e-02
  3.39752798e-01  7.27158595e-01  1.00000000e+00  1.00000000e+00  1.00000000e+00
  1.00000000e+00  1.00000000e+00  1.83479944e-03  1.39949958e-02  6.85869792e-02
  2.32240930e-01  4.69069858e-01  3.60454891e-01 -1.14961023e-01 -1.69118034e-01
  1.14585223e+00  6.75800232e-02  3.23907111e-01  7.40895255e-01  1.00000000e+00
  1.00000000e+00  1.00000000e+00  1.00000000e+00  1.00000000e+00  1.83470016e-03
  1.40373012e-02  6.88426061e-02  2.32184421e-01  4.67941342e-01  3.62312032e-01
 -1.19332409e-01 -1.60854212e-01  1.14345648e+00  6.89990956e-02  3.16423980e-01
  7.44308252e-01  1.00000000e+00  1.00000000e+00  1.00000000e+00  1.00000000e+00
  1.00000000e+00  1.83109981e-03  1.39500985e-02  6.84450927e-02  2.32714275e-01
  4.70192950e-01  3.58520862e-01 -1.10777504e-01 -1.48026305e-01  1.13076704e+00
  7.08742995e-02  3.39752798e-01  7.27158595e-01  1.00000000e+00  1.00000000e+00
  1.00000000e+00  1.00000000e+00  1.00000000e+00  3.34945995e-02  2.34726947e-01
  8.13757318e-01  1.00000000e+00  3.34945995e-02  2.34726947e-01  8.13757318e-01
  1.00000000e+00  1.83470016e-03  1.40373012e-02  6.88426061e-02  2.32184421e-01
  4.67941342e-01  3.62312032e-01 -1.19332409e-01 -1.60854212e-01  1.14345648e+00
  6.89990956e-02  3.16423980e-01  7.44308252e-01  1.00000000e+00  1.00000000e+00
  1.00000000e+00  1.00000000e+00  1.00000000e+00  1.83470016e-03  1.40373012e-02
  6.88426061e-02  2.32184421e-01  4.67941342e-01  3.62312032e-01 -1.19332409e-01
 -1.60854212e-01  1.14345648e+00  6.89990956e-02  3.16423980e-01  7.44308252e-01
  1.00000000e+00  1.00000000e+00  1.00000000e+00  1.00000000e+00  1.00000000e+00
  3.34945995e-02  2.34726947e-01  8.13757318e-01  1.00000000e+00  3.34945995e-02
  2.34726947e-01  8.13757318e-01  1.00000000e+00  1.83470016e-03  1.40373012e-02
  6.88426061e-02  2.32184421e-01  4.67941342e-01  3.62312032e-01 -1.19332409e-01
 -1.60854212e-01  1.14345648e+00  6.89990956e-02  3.16423980e-01  7.44308252e-01
  1.00000000e+00  1.00000000e+00  1.00000000e+00  1.00000000e+00  1.00000000e+00
  1.83470016e-03  1.40373012e-02  6.88426061e-02  2.32184421e-01  4.67941342e-01
  3.62312032e-01 -1.19332409e-01 -1.60854212e-01  1.14345648e+00  6.89990956e-02
  3.16423980e-01  7.44308252e-01  1.00000000e+00  1.00000000e+00  1.00000000e+00
  1.00000000e+00  1.00000000e+00  3.34945995e-02  2.34726947e-01  8.13757318e-01
  1.00000000e+00  3.34945995e-02  2.34726947e-01  8.13757318e-01  1.00000000e+00
  1.83470016e-03  1.40373012e-02  6.88426061e-02  2.32184421e-01  4.67941342e-01
  3.62312032e-01 -1.19332409e-01 -1.60854212e-01  1.14345648e+00  6.89990956e-02
  3.16423980e-01  7.44308252e-01  1.00000000e+00  1.00000000e+00  1.00000000e+00
  1.00000000e+00  1.00000000e+00  3.34945995e-02  2.34726947e-01  8.13757318e-01
  1.00000000e+00  3.34945995e-02  2.34726947e-01  8.13757318e-01  1.00000000e+00
  3.34945995e-02  2.34726947e-01  8.13757318e-01  1.00000000e+00  3.34945995e-02
  2.34726947e-01  8.13757318e-01  1.00000000e+00  3.34945995e-02  2.34726947e-01
  8.13757318e-01  1.00000000e+00  1.83470016e-03  1.40373012e-02  6.88426061e-02
  2.32184421e-01  4.67941342e-01  3.62312032e-01 -1.19332409e-01 -1.60854212e-01
  1.14345648e+00  6.89990956e-02  3.16423980e-01  7.44308252e-01  1.00000000e+00
  1.00000000e+00  1.00000000e+00  1.00000000e+00  1.00000000e+00  3.34945995e-02
  2.34726947e-01  8.13757318e-01  1.00000000e+00  3.34945995e-02  2.34726947e-01
  8.13757318e-01  1.00000000e+00  3.34945995e-02  2.34726947e-01  8.13757318e-01
  1.00000000e+00  1.83470016e-03  1.40373012e-02  6.88426061e-02  2.32184421e-01
  4.67941342e-01  3.62312032e-01 -1.19332409e-01 -1.60854212e-01  1.14345648e+00
  6.89990956e-02  3.16423980e-01  7.44308252e-01  1.00000000e+00  1.00000000e+00
  1.00000000e+00  1.00000000e+00  1.00000000e+00  1.83109981e-03  1.39500985e-02
  6.84450927e-02  2.32714275e-01  4.70192950e-01  3.58520862e-01 -1.10777504e-01
 -1.48026305e-01  1.13076704e+00  7.08742995e-02  3.39752798e-01  7.27158595e-01
  1.00000000e+00  1.00000000e+00  1.00000000e+00  1.00000000e+00  1.00000000e+00
  3.34945995e-02  2.34726947e-01  8.13757318e-01  1.00000000e+00  3.34945995e-02
  2.34726947e-01  8.13757318e-01  1.00000000e+00  1.83470016e-03  1.40373012e-02
  6.88426061e-02  2.32184421e-01  4.67941342e-01  3.62312032e-01 -1.19332409e-01
 -1.60854212e-01  1.14345648e+00  6.89990956e-02  3.16423980e-01  7.44308252e-01
  1.00000000e+00  1.00000000e+00  1.00000000e+00  1.00000000e+00  1.00000000e+00
  1.83109981e-03  1.39500985e-02  6.84450927e-02  2.32714275e-01  4.70192950e-01
  3.58520862e-01 -1.10777504e-01 -1.48026305e-01  1.13076704e+00  7.08742995e-02
  3.39752798e-01  7.27158595e-01  1.00000000e+00  1.00000000e+00  1.00000000e+00
  1.00000000e+00  1.00000000e+00  1.83479944e-03  1.39949958e-02  6.85869792e-02
  2.32240930e-01  4.69069858e-01  3.60454891e-01 -1.14961023e-01 -1.69118034e-01
  1.14585223e+00  6.75800232e-02  3.23907111e-01  7.40895255e-01  1.00000000e+00
  1.00000000e+00  1.00000000e+00  1.00000000e+00  1.00000000e+00  3.34945995e-02
  2.34726947e-01  8.13757318e-01  1.00000000e+00  3.34945995e-02  2.34726947e-01
  8.13757318e-01  1.00000000e+00
Coordinates of each shell                  R   N=         468
  2.11505619e-01  3.30013046e+00 -2.04797254e+00  2.11505619e-01  3.30013046e+00
 -2.04797254e+00  2.11505619e-01  3.30013046e+00 -2.04797254e+00  2.11505619e-01
  3.30013046e+00 -2.04797254e+00  2.11505619e-01  3.30013046e+00 -2.04797254e+00
  2.11505619e-01  3.30013046e+00 -2.04797254e+00  2.11505619e-01  3.30013046e+00
 -2.04797254e+00  2.11505619e-01  3.30013046e+00 -2.04797254e+00  1.26893291e+00
  6.19445801e+00 -4.94739565e+00  1.26893291e+00  6.19445801e+00 -4.94739565e+00
  1.26893291e+00  6.19445801e+00 -4.94739565e+00  1.26893291e+00  6.19445801e+00
 -4.94739565e+00  1.26893291e+00  6.19445801e+00 -4.94739565e+00  1.26893291e+00
  6.19445801e+00 -4.94739565e+00  1.26893291e+00  6.19445801e+00 -4.94739565e+00
  1.26893291e+00  6.19445801e+00 -4.94739565e+00 -1.39903563e-01  5.72028804e+00
 -2.82992804e+00 -1.39903563e-01  5.72028804e+00 -2.82992804e+00 -1.39903563e-01
  5.72028804e+00 -2.82992804e+00 -1.39903563e-01  5.72028804e+00 -2.82992804e+00
 -1.39903563e-01  5.72028804e+00 -2.82992804e+00 -1.39903563e-01  5.72028804e+00
 -2.82992804e+00 -1.39903563e-01  5.72028804e+00 -2.82992804e+00 -1.39903563e-01
  5.72028804e+00 -2.82992804e+00 -1.46843157e+00  7.26342907e+00 -1.75711454e+00
 -1.46843157e+00  7.26342907e+00 -1.75711454e+00 -1.46843157e+00  7.26342907e+00
 -1.75711454e+00 -1.46843157e+00  7.26342907e+00 -1.75711454e+00 -1.46843157e+00
  7.26342907e+00 -1.75711454e+00 -1.46843157e+00  7.26342907e+00 -1.75711454e+00
 -1.46843157e+00  7.26342907e+00 -1.75711454e+00 -1.46843157e+00  7.26342907e+00
 -1.75711454e+00  1.99745795e+00  4.73418245e+00 -5.93756927e+00  1.99745795e+00
  4.73418245e+00 -5.93756927e+00  8.74983688e-01  7.80543249e+00 -5.89043921e+00
  8.74983688e-01  7.80543249e+00 -5.89043921e+00 -1.13093820e+00  2.57669459e+00
  2.21726992e-01 -1.13093820e+00  2.57669459e+00  2.21726992e-01 -1.13093820e+00
  2.57669459e+00  2.21726992e-01 -1.13093820e+00  2.57669459e+00  2.21726992e-01
 -1.13093820e+00  2.57669459e+00  2.21726992e-01 -1.13093820e+00  2.57669459e+00
  2.21726992e-01 -1.13093820e+00  2.57669459e+00  2.21726992e-01 -1.13093820e+00
  2.57669459e+00  2.21726992e-01 -2.67631447e-01 -6.92132643e-02  1.05249364e+00
 -2.67631447e-01 -6.92132643e-02  1.05249364e+00 -2.67631447e-01 -6.92132643e-02
  1.05249364e+00 -2.67631447e-01 -6.92132643e-02  1.05249364e+00 -2.67631447e-01
 -6.92132643e-02  1.05249364e+00 -2.67631447e-01 -6.92132643e-02  1.05249364e+00
 -2.67631447e-01 -6.92132643e-02  1.05249364e+00 -2.67631447e-01 -6.92132643e-02
  1.05249364e+00 -3.16245997e+00  2.60174059e+00 -1.81339049e-01 -3.16245997e+00
  2.60174059e+00 -1.81339049e-01 -7.64216024e-01  3.98219401e+00  1.68901165e+00
 -7.64216024e-01  3.98219401e+00  1.68901165e+00  2.62537313e+00 -1.79781666e-01
  1.52331228e+00  2.62537313e+00 -1.79781666e-01  1.52331228e+00  2.62537313e+00
 -1.79781666e-01  1.52331228e+00  2.62537313e+00 -1.79781666e-01  1.52331228e+00
  2.62537313e+00 -1.79781666e-01  1.52331228e+00  2.62537313e+00 -1.79781666e-01
  1.52331228e+00  2.62537313e+00 -1.79781666e-01  1.52331228e+00  2.62537313e+00
 -1.79781666e-01  1.52331228e+00  3.70593607e+00  1.59938757e+00  3.54801416e+00
  3.70593607e+00  1.59938757e+00  3.54801416e+00  3.70593607e+00  1.59938757e+00
  3.54801416e+00  3.70593607e+00  1.59938757e+00  3.54801416e+00  3.70593607e+00
  1.59938757e+00  3.54801416e+00  3.70593607e+00  1.59938757e+00  3.54801416e+00
  3.70593607e+00  1.59938757e+00  3.54801416e+00  3.70593607e+00  1.59938757e+00
  3.54801416e+00  3.59263855e+00  2.04280668e-01 -2.73038661e-01  3.59263855e+00
  2.04280668e-01 -2.73038661e-01  3.10075058e+00 -2.13421559e+00  2.03238334e+00
  3.10075058e+00 -2.13421559e+00  2.03238334e+00  6.57406804e+00  1.28883132e+00
  3.84352362e+00  6.57406804e+00  1.28883132e+00  3.84352362e+00  6.57406804e+00
  1.28883132e+00  3.84352362e+00  6.57406804e+00  1.28883132e+00  3.84352362e+00
  6.57406804e+00  1.28883132e+00  3.84352362e+00  6.57406804e+00  1.28883132e+00
  3.84352362e+00  6.57406804e+00  1.28883132e+00  3.84352362e+00  6.57406804e+00
  1.28883132e+00  3.84352362e+00  2.79727389e+00  1.24063131e+00  5.37837313e+00
  2.79727389e+00  1.24063131e+00  5.37837313e+00  3.29330062e+00  3.57466146e+00
  3.06409340e+00  3.29330062e+00  3.57466146e+00  3.06409340e+00  7.06584728e+00
 -6.48486362e-01  4.39831776e+00  7.06584728e+00 -6.48486362e-01  4.39831776e+00
  7.32409854e+00  2.56888177e+00  5.29014001e+00  7.32409854e+00  2.56888177e+00
  5.29014001e+00  7.55929166e+00  1.70086554e+00  2.06550264e+00  7.55929166e+00
  1.70086554e+00  2.06550264e+00 -1.77554368e+00 -7.34821583e-01  3.45835694e+00
 -1.77554368e+00 -7.34821583e-01  3.45835694e+00 -1.77554368e+00 -7.34821583e-01
  3.45835694e+00 -1.77554368e+00 -7.34821583e-01  3.45835694e+00 -1.77554368e+00
 -7.34821583e-01  3.45835694e+00 -1.77554368e+00 -7.34821583e-01  3.45835694e+00
 -1.77554368e+00 -7.34821583e-01  3.45835694e+00 -1.77554368e+00 -7.34821583e-01
  3.45835694e+00 -1.49808741e+00  6.82324569e-01  4.94104329e+00 -1.49808741e+00
  6.82324569e-01  4.94104329e+00 -1.17308214e+00 -2.56409222e+00  4.21497737e+00
 -1.17308214e+00 -2.56409222e+00  4.21497737e+00 -3.80553752e+00 -8.53288313e-01
  3.06333762e+00 -3.80553752e+00 -8.53288313e-01  3.06333762e+00 -9.69538439e-01
 -1.92679312e+00 -1.08458445e+00 -9.69538439e-01 -1.92679312e+00 -1.08458445e+00
 -9.69538439e-01 -1.92679312e+00 -1.08458445e+00 -9.69538439e-01 -1.92679312e+00
 -1.08458445e+00 -9.69538439e-01 -1.92679312e+00 -1.08458445e+00 -9.69538439e-01
 -1.92679312e+00 -1.08458445e+00 -9.69538439e-01 -1.92679312e+00 -1.08458445e+00
 -9.69538439e-01 -1.92679312e+00 -1.08458445e+00 -3.39371116e-01 -4.49932447e+00
 -4.11764686e-01 -3.39371116e-01 -4.49932447e+00 -4.11764686e-01 -3.39371116e-01
 -4.49932447e+00 -4.11764686e-01 -3.39371116e-01 -4.49932447e+00 -4.11764686e-01
 -3.39371116e-01 -4.49932447e+00 -4.11764686e-01 -3.39371116e-01 -4.49932447e+00
 -4.11764686e-01 -3.39371116e-01 -4.49932447e+00 -4.11764686e-01 -3.39371116e-01
 -4.49932447e+00 -4.11764686e-01  1.13866075e-01 -1.51447840e+00 -2.79379915e+00
  1.13866075e-01 -1.51447840e+00 -2.79379915e+00 -2.98850980e+00 -1.83933685e+00
 -1.51083315e+00 -2.98850980e+00 -1.83933685e+00 -1.51083315e+00 -2.27218933e+00
 -6.17194514e+00 -1.44485176e-01 -2.27218933e+00 -6.17194514e+00 -1.44485176e-01
 -2.27218933e+00 -6.17194514e+00 -1.44485176e-01 -2.27218933e+00 -6.17194514e+00
 -1.44485176e-01 -2.27218933e+00 -6.17194514e+00 -1.44485176e-01 -2.27218933e+00
 -6.17194514e+00 -1.44485176e-01 -2.27218933e+00 -6.17194514e+00 -1.44485176e-01
 -2.27218933e+00 -6.17194514e+00 -1.44485176e-01 -4.50324915e+00 -5.69633013e+00
 -4.54383397e-01 -4.50324915e+00 -5.69633013e+00 -4.54383397e-01 -4.50324915e+00
 -5.69633013e+00 -4.54383397e-01 -4.50324915e+00 -5.69633013e+00 -4.54383397e-01
 -4.50324915e+00 -5.69633013e+00 -4.54383397e-01 -4.50324915e+00 -5.69633013e+00
 -4.54383397e-01 -4.50324915e+00 -5.69633013e+00 -4.54383397e-01 -4.50324915e+00
 -5.69633013e+00 -4.54383397e-01 -1.34779605e+00 -8.47177375e+00  5.94120936e-01
 -1.34779605e+00 -8.47177375e+00  5.94120936e-01 -1.34779605e+00 -8.47177375e+00
  5.94120936e-01 -1.34779605e+00 -8.47177375e+00  5.94120936e-01 -1.34779605e+00
 -8.47177375e+00  5.94120936e-01 -1.34779605e+00 -8.47177375e+00  5.94120936e-01
 -1.34779605e+00 -8.47177375e+00  5.94120936e-01 -1.34779605e+00 -8.47177375e+00
  5.94120936e-01  5.19728609e-01 -8.82594277e+00  4.16085547e-01  5.19728609e-01
 -8.82594277e+00  4.16085547e-01 -2.55135499e+00 -9.94830434e+00  4.87775037e-01
 -2.55135499e+00 -9.94830434e+00  4.87775037e-01
Total Energy                               R     -7.642819303552508e+02
Alpha Orbital Energies                     R   N=         321
 -1.92022974e+01 -1.92006803e+01 -1.91364469e+01 -1.91361582e+01 -1.43742276e+01
 -1.43742276e+01 -1.03486274e+01 -1.03477837e+01 -1.02491918e+01 -1.02446911e+01
 -1.02150316e+01 -1.01875759e+01 -1.01857525e+01 -1.01838664e+01 -1.01800751e+01
 -1.11518858e+00 -1.11282860e+00 -1.02364763e+00 -1.02226694e+00 -9.24750222e-01
 -9.23716065e-01 -8.38559383e-01 -7.76173732e-01 -7.23058627e-01 -7.09272884e-01
 -6.85571974e-01 -6.23742657e-01 -6.07621506e-01 -5.95380004e-01 -5.67364986e-01
 -5.65688761e-01 -5.41706697e-01 -5.27315204e-01 -5.24176400e-01 -5.03223307e-01
 -4.86783728e-01 -4.70419951e-01 -4.62148368e-01 -4.58004248e-01 -4.44062245e-01
 -4.40450301e-01 -4.34133718e-01 -4.12064022e-01 -4.05773159e-01 -3.89431546e-01
 -3.85142577e-01 -3.79704460e-01 -3.69964665e-01 -3.66848118e-01 -3.53338334e-01