Generated by Psi4
     FORCE                           RHF                       TESTBAS
Number of atoms                            I               33
Charge                                     I                0
Multiplicity                               I                1
Number of electrons                        I              148
Number of alpha electrons                  I               74
Number of beta electrons                   I               74
Number of basis functions                  I              410
Number of independent functions            I              410
Atomic numbers                             I   N=          33
           6           7           6           6           6           6
           1           6           6           6           6           6
           6           1           1           6           6           1
           1           1           1           1          17           8
           1           6           7           6           6           1
           1           1           1
Nuclear charges                            R   N=          33
  6.00000000e+00  7.00000000e+00  6.00000000e+00  6.00000000e+00  6.00000000e+00
  6.00000000e+00  1.00000000e+00  6.00000000e+00  6.00000000e+00  6.00000000e+00
  6.00000000e+00  6.00000000e+00  6.00000000e+00  1.00000000e+00  1.00000000e+00
  6.00000000e+00  6.00000000e+00  1.00000000e+00  1.00000000e+00  1.00000000e+00
  1.00000000e+00  1.00000000e+00  1.70000000e+01  8.00000000e+00  1.00000000e+00
  6.00000000e+00  7.00000000e+00  6.00000000e+00  6.00000000e+00  1.00000000e+00
  1.00000000e+00  1.00000000e+00  1.00000000e+00
Current cartesian coordinates              R   N=          99
 -4.19784935e+00  1.00711380e+00 -2.34915678e+00 -3.87768476e-01 -6.58392865e-01
 -3.69474513e+00 -8.18441190e-01 -1.88044060e+00 -1.24212462e+00 -3.46715183e+00
 -8.59188100e-01 -6.15723401e-01 -7.40986711e+00 -3.58088860e-01  1.54949525e+00
 -5.06480711e+00 -1.56775893e+00  1.34788780e+00 -4.50699524e+00 -3.01832212e+00
  2.69012966e+00  1.16960076e+00 -1.19342504e+00  7.46434723e-01  1.35099563e+00
  1.30296917e+00  1.61754306e+00  3.18805521e+00  2.00097484e+00  3.37350018e+00
  4.86130759e+00  1.72394361e-01  4.27619976e+00  4.71738626e+00 -2.32106447e+00
  3.44257945e+00  2.87094087e+00 -2.99160050e+00  1.67593873e+00  3.31441004e+00
  3.93666522e+00  4.03900199e+00  6.02674573e+00 -3.72648700e+00  4.16200818e+00
 -6.52490828e+00  2.22808989e+00 -2.15264290e+00 -8.12959378e+00  1.52278125e+00
 -1.76308321e-01 -7.06199608e+00  3.67622213e+00 -3.50405115e+00 -9.95738133e+00
  2.43693251e+00  2.64038889e-02  4.50638935e-02  2.73237799e+00  9.32593383e-01
  2.74744063e+00 -4.92854646e+00  1.02216970e+00 -8.69080885e+00 -8.79536702e-01
  3.06820055e+00  7.17889545e+00  1.03144221e+00  6.49885353e+00 -7.93992821e-01
 -4.55958022e+00 -1.48226666e+00 -1.85706149e+00 -4.97283859e+00 -2.92101592e+00
 -2.11986781e+00  1.28871308e+00 -4.16010556e+00 -1.55501414e+00  2.90163883e+00
 -5.87539588e+00  9.21952816e-01  2.04958108e+00 -6.87321692e+00  1.97545688e+00
  9.12836360e-02 -4.93166976e+00  2.18444663e+00  3.66484622e+00 -7.14023804e+00
  6.25085465e-01  1.16963479e+00 -8.73087970e+00  3.28487158e+00  9.68069903e-01
 -3.57663700e+00  2.92019927e+00 -1.51406597e+00 -5.82528008e+00
Integer atomic weights                     I   N=          33
          12          14          12          12          12          12
           1          12          12          12          12          12
          12           1           1          12          12           1
           1           1           1           1          34          15
           1          12          14          12          12           1
           1           1           1
Real atomic weights                        R   N=          33
  1.20000000e+01  1.40030740e+01  1.20000000e+01  1.20000000e+01  1.20000000e+01
  1.20000000e+01  1.00782503e+00  1.20000000e+01  1.20000000e+01  1.20000000e+01
  1.20000000e+01  1.20000000e+01  1.20000000e+01  1.00782503e+00  1.00782503e+00
  1.20000000e+01  1.20000000e+01  1.00782503e+00  1.00782503e+00  1.00782503e+00
  1.00782503e+00  1.00782503e+00  3.49688527e+01  1.59949146e+01  1.00782503e+00
  1.20000000e+01  1.40030740e+01  1.20000000e+01  1.20000000e+01  1.00782503e+00
  1.00782503e+00  1.00782503e+00  1.00782503e+00
Number of primitive shells                 I              404
Number of contracted shells                I              188
Pure/Cartesian d shells                    I                1
Pure/Cartesian f shells                    I                1
Highest angular momentum                   I                2
Largest degree of contraction              I                6
Shell types                                I   N=         188
           0           0           1           0           1           2
           0           1           0           0           1           0
           1           2           0           1           0           0
           1           0           1           2           0           1
           0           0           1           0           1           2
           0           1           0           0           1           0
           1           2           0           1           0           0
           1           0           1           2           0           1
           0           0           0           0           1           0
           1           2           0           1           0           0
           1           0           1           2           0           1
           0           0           1           0           1           2
           0           1           0           0           1           0
           1           2           0           1           0           0
           1           0           1           2           0           1
           0           0           1           0           1           2
           0           1           0           0           0           0
           0           0           1           0           1           2
           0           1           0           0           1           0
           1           2           0           1           0           0
           0           0           0           0           0           0
           0           0           0           0           1           0
           1           0           1           2           0           1
           0           0           1           0           1           2
           0           1           0           0           0           0
           1           0           1           2           0           1
           0           0           1           0           1           2
           0           1           0           0           1           0
           1           2           0           1           0           0
           1           0           1           2           0           1
           0           0           0           0           0           0
           0           0
Number of primitives per shell             I   N=         188
           6           3           3           1           1           1
           1           1           6           3           3           1
           1           1           1           1           6           3
           3           1           1           1           1           1
           6           3           3           1           1           1
           1           1           6           3           3           1
           1           1           1           1           6           3
           3           1           1           1           1           1
           3           1           6           3           3           1
           1           1           1           1           6           3
           3           1           1           1           1           1
           6           3           3           1           1           1
           1           1           6           3           3           1
           1           1           1           1           6           3
           3           1           1           1           1           1
           6           3           3           1           1           1
           1           1           3           1           3           1
           6           3           3           1           1           1
           1           1           6           3           3           1
           1           1           1           1           3           1
           3           1           3           1           3           1
           3           1           6           6           6           3
           3           1           1           1           1           1
           6           3           3           1           1           1
           1           1           3           1           6           3
           3           1           1           1           1           1
           6           3           3           1           1           1
           1           1           6           3           3           1
           1           1           1           1           6           3
           3           1           1           1           1           1
           3           1           3           1           3           1
           3           1
Shell to atom map                          I   N=         188
           1           1           1           1           1           1
           1           1           2           2           2           2
           2           2           2           2           3           3
           3           3           3           3           3           3
           4           4           4           4           4           4
           4           4           5           5           5           5
           5           5           5           5           6           6
           6           6           6           6           6           6
           7           7           8           8           8           8
           8           8           8           8           9           9
           9           9           9           9           9           9
          10          10          10          10          10          10
          10          10          11          11          11          11
          11          11          11          11          12          12
          12          12          12          12          12          12
          13          13          13          13          13          13
          13          13          14          14          15          15
          16          16          16          16          16          16
          16          16          17          17          17          17
          17          17          17          17          18          18
          19          19          20          20          21          21
          22          22          23          23          23          23
          23          23          23          23          23          23
          24          24          24          24          24          24
          24          24          25          25          26          26
          26          26          26          26          26          26
          27          27          27          27          27          27
          27          27          28          28          28          28
          28          28          28          28          29          29
          29          29          29          29          29          29
          30          30          31          31          32          32
          33          33
Primitive exponents                        R   N=         404
  3.04752490e+03  4.57369510e+02  1.03948690e+02  2.92101550e+01  9.28666300e+00
  3.16392700e+00  7.86827240e+00  1.88128850e+00  5.44249300e-01  7.86827240e+00
  1.88128850e+00  5.44249300e-01  1.68714400e-01  1.68714400e-01  8.00000000e-01
  4.38000000e-02  4.38000000e-02  4.17351100e+03  6.27457900e+02  1.42902100e+02
  4.02343300e+01  1.28202100e+01  4.39043700e+00  1.16263580e+01  2.71628000e+00
  7.72218000e-01  1.16263580e+01  2.71628000e+00  7.72218000e-01  2.12031300e-01
  2.12031300e-01  8.00000000e-01  6.39000000e-02  6.39000000e-02  3.04752490e+03
  4.57369510e+02  1.03948690e+02  2.92101550e+01  9.28666300e+00  3.16392700e+00
  7.86827240e+00  1.88128850e+00  5.44249300e-01  7.86827240e+00  1.88128850e+00
  5.44249300e-01  1.68714400e-01  1.68714400e-01  8.00000000e-01  4.38000000e-02
  4.38000000e-02  3.04752490e+03  4.57369510e+02  1.03948690e+02  2.92101550e+01
  9.28666300e+00  3.16392700e+00  7.86827240e+00  1.88128850e+00  5.44249300e-01
  7.86827240e+00  1.88128850e+00  5.44249300e-01  1.68714400e-01  1.68714400e-01
  8.00000000e-01  4.38000000e-02  4.38000000e-02  3.04752490e+03  4.57369510e+02
  1.03948690e+02  2.92101550e+01  9.28666300e+00  3.16392700e+00  7.86827240e+00
  1.88128850e+00  5.44249300e-01  7.86827240e+00  1.88128850e+00  5.44249300e-01
  1.68714400e-01  1.68714400e-01  8.00000000e-01  4.38000000e-02  4.38000000e-02
  3.04752490e+03  4.57369510e+02  1.03948690e+02  2.92101550e+01  9.28666300e+00
  3.16392700e+00  7.86827240e+00  1.88128850e+00  5.44249300e-01  7.86827240e+00
  1.88128850e+00  5.44249300e-01  1.68714400e-01  1.68714400e-01  8.00000000e-01
  4.38000000e-02  4.38000000e-02  1.87311370e+01  2.82539370e+00  6.40121700e-01
  1.61277800e-01  3.04752490e+03  4.57369510e+02  1.03948690e+02  2.92101550e+01
  9.28666300e+00  3.16392700e+00  7.86827240e+00  1.88128850e+00  5.44249300e-01
  7.86827240e+00  1.88128850e+00  5.44249300e-01  1.68714400e-01  1.68714400e-01
  8.00000000e-01  4.38000000e-02  4.38000000e-02  3.04752490e+03  4.57369510e+02
  1.03948690e+02  2.92101550e+01  9.28666300e+00  3.16392700e+00  7.86827240e+00
  1.88128850e+00  5.44249300e-01  7.86827240e+00  1.88128850e+00  5.44249300e-01
  1.68714400e-01  1.68714400e-01  8.00000000e-01  4.38000000e-02  4.38000000e-02
  3.04752490e+03  4.57369510e+02  1.03948690e+02  2.92101550e+01  9.28666300e+00
  3.16392700e+00  7.86827240e+00  1.88128850e+00  5.44249300e-01  7.86827240e+00
  1.88128850e+00  5.44249300e-01  1.68714400e-01  1.68714400e-01  8.00000000e-01
  4.38000000e-02  4.38000000e-02  3.04752490e+03  4.57369510e+02  1.03948690e+02
  2.92101550e+01  9.28666300e+00  3.16392700e+00  7.86827240e+00  1.88128850e+00
  5.44249300e-01  7.86827240e+00  1.88128850e+00  5.44249300e-01  1.68714400e-01
  1.68714400e-01  8.00000000e-01  4.38000000e-02  4.38000000e-02  3.04752490e+03
  4.57369510e+02  1.03948690e+02  2.92101550e+01  9.28666300e+00  3.16392700e+00
  7.86827240e+00  1.88128850e+00  5.44249300e-01  7.86827240e+00  1.88128850e+00
  5.44249300e-01  1.68714400e-01  1.68714400e-01  8.00000000e-01  4.38000000e-02
  4.38000000e-02  3.04752490e+03  4.57369510e+02  1.03948690e+02  2.92101550e+01
  9.28666300e+00  3.16392700e+00  7.86827240e+00  1.88128850e+00  5.44249300e-01
  7.86827240e+00  1.88128850e+00  5.44249300e-01  1.68714400e-01  1.68714400e-01
  8.00000000e-01  4.38000000e-02  4.38000000e-02  1.87311370e+01  2.82539370e+00
  6.40121700e-01  1.61277800e-01  1.87311370e+01  2.82539370e+00  6.40121700e-01
  1.61277800e-01  3.04752490e+03  4.57369510e+02  1.03948690e+02  2.92101550e+01
  9.28666300e+00  3.16392700e+00  7.86827240e+00  1.88128850e+00  5.44249300e-01
  7.86827240e+00  1.88128850e+00  5.44249300e-01  1.68714400e-01  1.68714400e-01
  8.00000000e-01  4.38000000e-02  4.38000000e-02  3.04752490e+03  4.57369510e+02
  1.03948690e+02  2.92101550e+01  9.28666300e+00  3.16392700e+00  7.86827240e+00
  1.88128850e+00  5.44249300e-01  7.86827240e+00  1.88128850e+00  5.44249300e-01
  1.68714400e-01  1.68714400e-01  8.00000000e-01  4.38000000e-02  4.38000000e-02
  1.87311370e+01  2.82539370e+00  6.40121700e-01  1.61277800e-01  1.87311370e+01
  2.82539370e+00  6.40121700e-01  1.61277800e-01  1.87311370e+01  2.82539370e+00
  6.40121700e-01  1.61277800e-01  1.87311370e+01  2.82539370e+00  6.40121700e-01
  1.61277800e-01  1.87311370e+01  2.82539370e+00  6.40121700e-01  1.61277800e-01
  2.51801000e+04  3.78035000e+03  8.60474000e+02  2.42145000e+02  7.73349000e+01
  2.62470000e+01  4.91765000e+02  1.16984000e+02  3.74153000e+01  1.37834000e+01
  5.45215000e+00  2.22588000e+00  4.91765000e+02  1.16984000e+02  3.74153000e+01
  1.37834000e+01  5.45215000e+00  2.22588000e+00  3.18649000e+00  1.14427000e+00
  4.20377000e-01  3.18649000e+00  1.14427000e+00  4.20377000e-01  1.42657000e-01
  1.42657000e-01  7.50000000e-01  4.83000000e-02  4.83000000e-02  5.48467170e+03
  8.25234950e+02  1.88046960e+02  5.29645000e+01  1.68975700e+01  5.79963530e+00
  1.55396160e+01  3.59993360e+00  1.01376180e+00  1.55396160e+01  3.59993360e+00
  1.01376180e+00  2.70005800e-01  2.70005800e-01  8.00000000e-01  8.45000000e-02
  8.45000000e-02  1.87311370e+01  2.82539370e+00  6.40121700e-01  1.61277800e-01
  3.04752490e+03  4.57369510e+02  1.03948690e+02  2.92101550e+01  9.28666300e+00
  3.16392700e+00  7.86827240e+00  1.88128850e+00  5.44249300e-01  7.86827240e+00
  1.88128850e+00  5.44249300e-01  1.68714400e-01  1.68714400e-01  8.00000000e-01
  4.38000000e-02  4.38000000e-02  4.17351100e+03  6.27457900e+02  1.42902100e+02
  4.02343300e+01  1.28202100e+01  4.39043700e+00  1.16263580e+01  2.71628000e+00
  7.72218000e-01  1.16263580e+01  2.71628000e+00  7.72218000e-01  2.12031300e-01
  2.12031300e-01  8.00000000e-01  6.39000000e-02  6.39000000e-02  3.04752490e+03
  4.57369510e+02  1.03948690e+02  2.92101550e+01  9.28666300e+00  3.16392700e+00
  7.86827240e+00  1.88128850e+00  5.44249300e-01  7.86827240e+00  1.88128850e+00
  5.44249300e-01  1.68714400e-01  1.68714400e-01  8.00000000e-01  4.38000000e-02
  4.38000000e-02  3.04752490e+03  4.57369510e+02  1.03948690e+02  2.92101550e+01
  9.28666300e+00  3.16392700e+00  7.86827240e+00  1.88128850e+00  5.44249300e-01
  7.86827240e+00  1.88128850e+00  5.44249300e-01  1.68714400e-01  1.68714400e-01
  8.00000000e-01  4.38000000e-02  4.38000000e-02  1.87311370e+01  2.82539370e+00
  6.40121700e-01  1.61277800e-01  1.87311370e+01  2.82539370e+00  6.40121700e-01
  1.61277800e-01  1.87311370e+01  2.82539370e+00  6.40121700e-01  1.61277800e-01
  1.87311370e+01  2.82539370e+00  6.40121700e-01  1.61277800e-01
Contraction coefficients                   R   N=         404
  1.83470016e-03  1.40373012e-02  6.88426061e-02  2.32184421e-01  4.67941342e-01
  3.62312032e-01 -1.19332409e-01 -1.60854212e-01  1.14345648e+00  6.89990956e-02
  3.16423980e-01  7.44308252e-01  1.00000000e+00  1.00000000e+00  1.00000000e+00
  1.00000000e+00  1.00000000e+00  1.83479944e-03  1.39949958e-02  6.85869792e-02
  2.32240930e-01  4.69069858e-01  3.60454891e-01 -1.14961023e-01 -1.69118034e-01
  1.14585223e+00  6.75800232e-02  3.23907111e-01  7.40895255e-01  1.00000000e+00
  1.00000000e+00  1.00000000e+00  1.00000000e+00  1.00000000e+00  1.83470016e-03
  1.40373012e-02  6.88426061e-02  2.32184421e-01  4.67941342e-01  3.62312032e-01
 -1.19332409e-01 -1.60854212e-01  1.14345648e+00  6.89990956e-02  3.16423980e-01
  7.44308252e-01  1.00000000e+00  1.00000000e+00  1.00000000e+00  1.00000000e+00
  1.00000000e+00  1.83470016e-03  1.40373012e-02  6.88426061e-02  2.32184421e-01
  4.67941342e-01  3.62312032e-01 -1.19332409e-01 -1.60854212e-01  1.14345648e+00
  6.89990956e-02  3.16423980e-01  7.44308252e-01  1.00000000e+00  1.00000000e+00
  1.00000000e+00  1.00000000e+00  1.00000000e+00  1.83470016e-03  1.40373012e-02
  6.88426061e-02  2.32184421e-01  4.67941342e-01  3.62312032e-01 -1.19332409e-01
 -1.60854212e-01  1.14345648e+00  6.89990956e-02  3.16423980e-01  7.44308252e-01
  1.00000000e+00  1.00000000e+00  1.00000000e+00  1.00000000e+00  1.00000000e+00
  1.83470016e-03  1.40373012e-02  6.88426061e-02  2.32184421e-01  4.67941342e-01
  3.62312032e-01 -1.19332409e-01 -1.60854212e-01  1.14345648e+00  6.89990956e-02
  3.16423980e-01  7.44308252e-01  1.00000000e+00  1.00000000e+00  1.00000000e+00
  1.00000000e+00  1.00000000e+00  3.34945995e-02  2.34726947e-01  8.13757318e-01
  1.00000000e+00  1.83470016e-03  1.40373012e-02  6.88426061e-02  2.32184421e-01
  4.67941342e-01  3.62312032e-01 -1.19332409e-01 -1.60854212e-01  1.14345648e+00
  6.89990956e-02  3.16423980e-01  7.44308252e-01  1.00000000e+00  1.00000000e+00
  1.00000000e+00  1.00000000e+00  1.00000000e+00  1.83470016e-03  1.40373012e-02
  6.88426061e-02  2.32184421e-01  4.67941342e-01  3.62312032e-01 -1.19332409e-01
 -1.60854212e-01  1.14345648e+00  6.89990956e-02  3.16423980e-01  7.44308252e-01
  1.00000000e+00  1.00000000e+00  1.00000000e+00  1.00000000e+00  1.00000000e+00
  1.83470016e-03  1.40373012e-02  6.88426061e-02  2.32184421e-01  4.67941342e-01
  3.62312032e-01 -1.19332409e-01 -1.60854212e-01  1.14345648e+00  6.89990956e-02
  3.16423980e-01  7.44308252e-01  1.00000000e+00  1.00000000e+00  1.00000000e+00
  1.00000000e+00  1.00000000e+00  1.83470016e-03  1.40373012e-02  6.88426061e-02
  2.32184421e-01  4.67941342e-01  3.62312032e-01 -1.19332409e-01 -1.60854212e-01
  1.14345648e+00  6.89990956e-02  3.16423980e-01  7.44308252e-01  1.00000000e+00
  1.00000000e+00  1.00000000e+00  1.00000000e+00  1.00000000e+00  1.83470016e-03
  1.40373012e-02  6.88426061e-02  2.32184421e-01  4.67941342e-01  3.62312032e-01
 -1.19332409e-01 -1.60854212e-01  1.14345648e+00  6.89990956e-02  3.16423980e-01
  7.44308252e-01  1.00000000e+00  1.00000000e+00  1.00000000e+00  1.00000000e+00
  1.00000000e+00  1.83470016e-03  1.40373012e-02  6.88426061e-02  2.32184421e-01
  4.67941342e-01  3.62312032e-01 -1.19332409e-01 -1.60854212e-01  1.14345648e+00
  6.89990956e-02  3.16423980e-01  7.44308252e-01  1.00000000e+00  1.00000000e+00
  1.00000000e+00  1.00000000e+00  1.00000000e+00  3.34945995e-02  2.34726947e-01
  8.13757318e-01  1.00000000e+00  3.34945995e-02  2.34726947e-01  8.13757318e-01
  1.00000000e+00  1.83470016e-03  1.40373012e-02  6.88426061e-02  2.32184421e-01
  4.67941342e-01  3.62312032e-01 -1.19332409e-01 -1.60854212e-01  1.14345648e+00
  6.89990956e-02  3.16423980e-01  7.44308252e-01  1.00000000e+00  1.00000000e+00
  1.00000000e+00  1.00000000e+00  1.00000000e+00  1.83470016e-03  1.40373012e-02
  6.88426061e-02  2.32184421e-01  4.67941342e-01  3.62312032e-01 -1.19332409e-01
 -1.60854212e-01  1.14345648e+00  6.89990956e-02  3.16423980e-01  7.44308252e-01
  1.00000000e+00  1.00000000e+00  1.00000000e+00  1.00000000e+00  1.00000000e+00
  3.34945995e-02  2.34726947e-01  8.13757318e-01  1.00000000e+00  3.34945995e-02
  2.34726947e-01  8.13757318e-01  1.00000000e+00  3.34945995e-02  2.34726947e-01
  8.13757318e-01  1.00000000e+00  3.34945995e-02  2.34726947e-01  8.13757318e-01
  1.00000000e+00  3.34945995e-02  2.34726947e-01  8.13757318e-01  1.00000000e+00
  1.83300031e-03  1.40340024e-02  6.90970118e-02  2.37452040e-01  4.83034082e-01
  3.39856058e-01 -2.29740199e-03 -3.07140266e-02 -1.12528097e-01  4.50160390e-02
  5.89353510e-01  4.65206403e-01  3.98940055e-03  3.03180042e-02  1.29880018e-01
  3.27951045e-01  4.53527062e-01  2.52154035e-01 -2.51831288e-01  6.15893150e-02
  1.06018542e+00 -1.42990127e-02  3.23572288e-01  7.43507661e-01  1.00000000e+00
  1.00000000e+00  1.00000000e+00  1.00000000e+00  1.00000000e+00  1.83109981e-03
  1.39500985e-02  6.84450927e-02  2.32714275e-01  4.70192950e-01  3.58520862e-01
 -1.10777504e-01 -1.48026305e-01  1.13076704e+00  7.08742995e-02  3.39752798e-01
  7.27158595e-01  1.00000000e+00  1.00000000e+00  1.00000000e+00  1.00000000e+00
  1.00000000e+00  3.34945995e-02  2.34726947e-01  8.13757318e-01  1.00000000e+00
  1.83470016e-03  1.40373012e-02  6.88426061e-02  2.32184421e-01  4.67941342e-01
  3.62312032e-01 -1.19332409e-01 -1.60854212e-01  1.14345648e+00  6.89990956e-02
  3.16423980e-01  7.44308252e-01  1.00000000e+00  1.00000000e+00  1.00000000e+00
  1.00000000e+00  1.00000000e+00  1.83479944e-03  1.39949958e-02  6.85869792e-02
  2.32240930e-01  4.69069858e-01  3.60454891e-01 -1.14961023e-01 -1.69118034e-01
  1.14585223e+00  6.75800232e-02  3.23907111e-01  7.40895255e-01  1.00000000e+00
  1.00000000e+00  1.00000000e+00  1.00000000e+00  1.00000000e+00  1.83470016e-03
  1.40373012e-02  6.88426061e-02  2.32184421e-01  4.67941342e-01  3.62312032e-01
 -1.19332409e-01 -1.60854212e-01  1.14345648e+00  6.89990956e-02  3.16423980e-01
  7.44308252e-01  1.00000000e+00  1.00000000e+00  1.00000000e+00  1.00000000e+00
  1.00000000e+00  1.83470016e-03  1.40373012e-02  6.88426061e-02  2.32184421e-01
  4.67941342e-01  3.62312032e-01 -1.19332409e-01 -1.60854212e-01  1.14345648e+00
  6.89990956e-02  3.16423980e-01  7.44308252e-01  1.00000000e+00  1.00000000e+00
  1.00000000e+00  1.00000000e+00  1.00000000e+00  3.34945995e-02  2.34726947e-01
  8.13757318e-01  1.00000000e+00  3.34945995e-02  2.34726947e-01  8.13757318e-01
  1.00000000e+00  3.34945995e-02  2.34726947e-01  8.13757318e-01  1.00000000e+00
  3.34945995e-02  2.34726947e-01  8.13757318e-01  1.00000000e+00
Coordinates of each shell                  R   N=         564
 -4.19784935e+00  1.00711380e+00 -2.34915678e+00 -4.19784935e+00  1.00711380e+00
 -2.34915678e+00 -4.19784935e+00  1.00711380e+00 -2.34915678e+00 -4.19784935e+00
  1.00711380e+00 -2.34915678e+00 -4.19784935e+00  1.00711380e+00 -2.34915678e+00
 -4.19784935e+00  1.00711380e+00 -2.34915678e+00 -4.19784935e+00  1.00711380e+00
 -2.34915678e+00 -4.19784935e+00  1.00711380e+00 -2.34915678e+00 -3.87768476e-01
 -6.58392865e-01 -3.69474513e+00 -3.87768476e-01 -6.58392865e-01 -3.69474513e+00
 -3.87768476e-01 -6.58392865e-01 -3.69474513e+00 -3.87768476e-01 -6.58392865e-01
 -3.69474513e+00 -3.87768476e-01 -6.58392865e-01 -3.69474513e+00 -3.87768476e-01
 -6.58392865e-01 -3.69474513e+00 -3.87768476e-01 -6.58392865e-01 -3.69474513e+00
 -3.87768476e-01 -6.58392865e-01 -3.69474513e+00 -8.18441190e-01 -1.88044060e+00
 -1.24212462e+00 -8.18441190e-01 -1.88044060e+00 -1.24212462e+00 -8.18441190e-01
 -1.88044060e+00 -1.24212462e+00 -8.18441190e-01 -1.88044060e+00 -1.24212462e+00
 -8.18441190e-01 -1.88044060e+00 -1.24212462e+00 -8.18441190e-01 -1.88044060e+00
 -1.24212462e+00 -8.18441190e-01 -1.88044060e+00 -1.24212462e+00 -8.18441190e-01
 -1.88044060e+00 -1.24212462e+00 -3.46715183e+00 -8.59188100e-01 -6.15723401e-01
 -3.46715183e+00 -8.59188100e-01 -6.15723401e-01 -3.46715183e+00 -8.59188100e-01
 -6.15723401e-01 -3.46715183e+00 -8.59188100e-01 -6.15723401e-01 -3.46715183e+00
 -8.59188100e-01 -6.15723401e-01 -3.46715183e+00 -8.59188100e-01 -6.15723401e-01
 -3.46715183e+00 -8.59188100e-01 -6.15723401e-01 -3.46715183e+00 -8.59188100e-01
 -6.15723401e-01 -7.40986711e+00 -3.58088860e-01  1.54949525e+00 -7.40986711e+00
 -3.58088860e-01  1.54949525e+00 -7.40986711e+00 -3.58088860e-01  1.54949525e+00
 -7.40986711e+00 -3.58088860e-01  1.54949525e+00 -7.40986711e+00 -3.58088860e-01
  1.54949525e+00 -7.40986711e+00 -3.58088860e-01  1.54949525e+00 -7.40986711e+00
 -3.58088860e-01  1.54949525e+00 -7.40986711e+00 -3.58088860e-01  1.54949525e+00
 -5.06480711e+00 -1.56775893e+00  1.34788780e+00 -5.06480711e+00 -1.56775893e+00
  1.34788780e+00 -5.06480711e+00 -1.56775893e+00  1.34788780e+00 -5.06480711e+00
 -1.56775893e+00  1.34788780e+00 -5.06480711e+00 -1.56775893e+00  1.34788780e+00
 -5.06480711e+00 -1.56775893e+00  1.34788780e+00 -5.06480711e+00 -1.56775893e+00
  1.34788780e+00 -5.06480711e+00 -1.56775893e+00  1.34788780e+00 -4.50699524e+00
 -3.01832212e+00  2.69012966e+00 -4.50699524e+00 -3.01832212e+00  2.69012966e+00
  1.16960076e+00 -1.19342504e+00  7.46434723e-01  1.16960076e+00 -1.19342504e+00
  7.46434723e-01  1.16960076e+00 -1.19342504e+00  7.46434723e-01  1.16960076e+00
 -1.19342504e+00  7.46434723e-01  1.16960076e+00 -1.19342504e+00  7.46434723e-01
  1.16960076e+00 -1.19342504e+00  7.46434723e-01  1.16960076e+00 -1.19342504e+00
  7.46434723e-01  1.16960076e+00 -1.19342504e+00  7.46434723e-01  1.35099563e+00
  1.30296917e+00  1.61754306e+00  1.35099563e+00  1.30296917e+00  1.61754306e+00
  1.35099563e+00  1.30296917e+00  1.61754306e+00  1.35099563e+00  1.30296917e+00
  1.61754306e+00  1.35099563e+00  1.30296917e+00  1.61754306e+00  1.35099563e+00
  1.30296917e+00  1.61754306e+00  1.35099563e+00  1.30296917e+00  1.61754306e+00
  1.35099563e+00  1.30296917e+00  1.61754306e+00  3.18805521e+00  2.00097484e+00
  3.37350018e+00  3.18805521e+00  2.00097484e+00  3.37350018e+00  3.18805521e+00
  2.00097484e+00  3.37350018e+00  3.18805521e+00  2.00097484e+00  3.37350018e+00
  3.18805521e+00  2.00097484e+00  3.37350018e+00  3.18805521e+00  2.00097484e+00
  3.37350018e+00  3.18805521e+00  2.00097484e+00  3.37350018e+00  3.18805521e+00
  2.00097484e+00  3.37350018e+00  4.86130759e+00  1.72394361e-01  4.27619976e+00
  4.86130759e+00  1.72394361e-01  4.27619976e+00  4.86130759e+00  1.72394361e-01
  4.27619976e+00  4.86130759e+00  1.72394361e-01  4.27619976e+00  4.86130759e+00
  1.72394361e-01  4.27619976e+00  4.86130759e+00  1.72394361e-01  4.27619976e+00
  4.86130759e+00  1.72394361e-01  4.27619976e+00  4.86130759e+00  1.72394361e-01
  4.27619976e+00  4.71738626e+00 -2.32106447e+00  3.44257945e+00  4.71738626e+00
 -2.32106447e+00  3.44257945e+00  4.71738626e+00 -2.32106447e+00  3.44257945e+00
  4.71738626e+00 -2.32106447e+00  3.44257945e+00  4.71738626e+00 -2.32106447e+00
  3.44257945e+00  4.71738626e+00 -2.32106447e+00  3.44257945e+00  4.71738626e+00
 -2.32106447e+00  3.44257945e+00  4.71738626e+00 -2.32106447e+00  3.44257945e+00
  2.87094087e+00 -2.99160050e+00  1.67593873e+00  2.87094087e+00 -2.99160050e+00
  1.67593873e+00  2.87094087e+00 -2.99160050e+00  1.67593873e+00  2.87094087e+00
 -2.99160050e+00  1.67593873e+00  2.87094087e+00 -2.99160050e+00  1.67593873e+00
  2.87094087e+00 -2.99160050e+00  1.67593873e+00  2.87094087e+00 -2.99160050e+00
  1.67593873e+00  2.87094087e+00 -2.99160050e+00  1.67593873e+00  3.31441004e+00
  3.93666522e+00  4.03900199e+00  3.31441004e+00  3.93666522e+00  4.03900199e+00