Generated by Psi4
     FORCE                           RHF                       TESTBAS
Number of atoms                            I               31
Charge                                     I                0
Multiplicity                               I                1
Number of electrons                        I              148
Number of alpha electrons                  I               74
Number of beta electrons                   I               74
Number of basis functions                  I              406
Number of independent functions            I              406
Atomic numbers                             I   N=          31
           6           7           6           7           6           6
           6           6           6           1           6           6
           6           6           6           6           1           1
           1           8          17           6           6           1
           1           1           1           1           8           1
           1
Nuclear charges                            R   N=          31
  6.00000000e+00  7.00000000e+00  6.00000000e+00  7.00000000e+00  6.00000000e+00
  6.00000000e+00  6.00000000e+00  6.00000000e+00  6.00000000e+00  1.00000000e+00
  6.00000000e+00  6.00000000e+00  6.00000000e+00  6.00000000e+00  6.00000000e+00
  6.00000000e+00  1.00000000e+00  1.00000000e+00  1.00000000e+00  8.00000000e+00
  1.70000000e+01  6.00000000e+00  6.00000000e+00  1.00000000e+00  1.00000000e+00
  1.00000000e+00  1.00000000e+00  1.00000000e+00  8.00000000e+00  1.00000000e+00
  1.00000000e+00
Current cartesian coordinates              R   N=          93
 -2.53422275e+00  2.09670892e+00 -1.26901998e+00 -1.69803762e+00  3.21878608e+00
 -3.53602375e+00 -5.76866996e-01  2.01817766e+00 -5.54974173e+00  1.94087952e+00
 -1.01174164e+00 -3.27720506e+00 -4.59190590e-02 -8.13126663e-01 -5.15874606e+00
  1.44319976e+00 -5.74570730e-01 -9.36859918e-01 -1.08603709e+00  2.52372686e-01
  1.20814257e-02 -4.35642101e+00  2.65590040e-02  3.23247059e+00 -2.05450045e+00
 -7.79744165e-01  2.26416983e+00 -9.78162408e-01 -2.21369362e+00  3.25662763e+00
  3.53958213e+00 -9.25148500e-01  9.21240310e-01  3.71316777e+00  5.36564529e-01
  3.13102178e+00  5.74542499e+00  2.29156756e-01  4.78714081e+00  7.61849782e+00
 -1.55727079e+00  4.26894461e+00  7.46053065e+00 -3.02271577e+00  2.07321650e+00
  5.44533612e+00 -2.70366999e+00  4.07848818e-01  5.86367253e+00  1.38915477e+00
  6.47802247e+00  9.19264004e+00 -1.80597030e+00  5.56490427e+00  8.91049957e+00
 -4.41764084e+00  1.66001557e+00  3.37274341e-03  3.12226334e+00 -7.49307364e+00
 -5.52633122e+00 -1.32101885e+00  6.02857363e+00 -4.83220676e+00  2.92469814e+00
 -2.29783409e-01 -5.74713147e+00  1.91383869e+00  2.01396400e+00 -5.92326211e+00
  4.35757459e+00 -1.21818441e+00 -7.53237816e+00  2.55340980e+00  2.79372470e+00
  5.31842534e+00 -3.81576122e+00 -1.31066030e+00  2.27948975e+00  1.94554476e+00
  3.54658914e+00 -2.23429968e+00  5.02553138e+00 -3.89310395e+00  6.49683118e-01
 -1.92363858e+00 -7.44371626e+00 -1.77924602e+00 -1.76747921e+00 -4.51745906e+00
  1.38330549e+00 -6.00508747e-01 -8.49953588e+00
Integer atomic weights                     I   N=          31
          12          14          12          14          12          12
          12          12          12           1          12          12
          12          12          12          12           1           1
           1          15          34          12          12           1
           1           1           1           1          15           1
           1
Real atomic weights                        R   N=          31
  1.20000000e+01  1.40030740e+01  1.20000000e+01  1.40030740e+01  1.20000000e+01
  1.20000000e+01  1.20000000e+01  1.20000000e+01  1.20000000e+01  1.00782503e+00
  1.20000000e+01  1.20000000e+01  1.20000000e+01  1.20000000e+01  1.20000000e+01
  1.20000000e+01  1.00782503e+00  1.00782503e+00  1.00782503e+00  1.59949146e+01
  3.49688527e+01  1.20000000e+01  1.20000000e+01  1.00782503e+00  1.00782503e+00
  1.00782503e+00  1.00782503e+00  1.00782503e+00  1.59949146e+01  1.00782503e+00
  1.00782503e+00
Number of primitive shells                 I              396
Number of contracted shells                I              184
Pure/Cartesian d shells                    I                1
Pure/Cartesian f shells                    I                1
Highest angular momentum                   I                2
Largest degree of contraction              I                6
Shell types                                I   N=         184
           0           0           1           0           1           2
           0           1           0           0           1           0
           1           2           0           1           0           0
           1           0           1           2           0           1
           0           0           1           0           1           2
           0           1           0           0           1           0
           1           2           0           1           0           0
           1           0           1           2           0           1
           0           0           1           0           1           2
           0           1           0           0           1           0
           1           2           0           1           0           0
           1           0           1           2           0           1
           0           0           0           0           1           0
           1           2           0           1           0           0
           1           0           1           2           0           1
           0           0           1           0           1           2
           0           1           0           0           1           0
           1           2           0           1           0           0
           1           0           1           2           0           1
           0           0           1           0           1           2
           0           1           0           0           0           0
           0           0           0           0           1           0
           1           2           0           1           0           0
           1           0           1           0           1           2
           0           1           0           0           1           0
           1           2           0           1           0           0
           1           0           1           2           0           1
           0           0           0           0           0           0
           0           0           0           0           0           0
           1           0           1           2           0           1
           0           0           0           0
Number of primitives per shell             I   N=         184
           6           3           3           1           1           1
           1           1           6           3           3           1
           1           1           1           1           6           3
           3           1           1           1           1           1
           6           3           3           1           1           1
           1           1           6           3           3           1
           1           1           1           1           6           3
           3           1           1           1           1           1
           6           3           3           1           1           1
           1           1           6           3           3           1
           1           1           1           1           6           3
           3           1           1           1           1           1
           3           1           6           3           3           1
           1           1           1           1           6           3
           3           1           1           1           1           1
           6           3           3           1           1           1
           1           1           6           3           3           1
           1           1           1           1           6           3
           3           1           1           1           1           1
           6           3           3           1           1           1
           1           1           3           1           3           1
           3           1           6           3           3           1
           1           1           1           1           6           6
           6           3           3           1           1           1
           1           1           6           3           3           1
           1           1           1           1           6           3
           3           1           1           1           1           1
           3           1           3           1           3           1
           3           1           3           1           6           3
           3           1           1           1           1           1
           3           1           3           1
Shell to atom map                          I   N=         184
           1           1           1           1           1           1
           1           1           2           2           2           2
           2           2           2           2           3           3
           3           3           3           3           3           3
           4           4           4           4           4           4
           4           4           5           5           5           5
           5           5           5           5           6           6
           6           6           6           6           6           6
           7           7           7           7           7           7
           7           7           8           8           8           8
           8           8           8           8           9           9
           9           9           9           9           9           9
          10          10          11          11          11          11
          11          11          11          11          12          12
          12          12          12          12          12          12
          13          13          13          13          13          13
          13          13          14          14          14          14
          14          14          14          14          15          15
          15          15          15          15          15          15
          16          16          16          16          16          16
          16          16          17          17          18          18
          19          19          20          20          20          20
          20          20          20          20          21          21
          21          21          21          21          21          21
          21          21          22          22          22          22
          22          22          22          22          23          23
          23          23          23          23          23          23
          24          24          25          25          26          26
          27          27          28          28          29          29
          29          29          29          29          29          29
          30          30          31          31
Primitive exponents                        R   N=         396
  3.04752490e+03  4.57369510e+02  1.03948690e+02  2.92101550e+01  9.28666300e+00
  3.16392700e+00  7.86827240e+00  1.88128850e+00  5.44249300e-01  7.86827240e+00
  1.88128850e+00  5.44249300e-01  1.68714400e-01  1.68714400e-01  8.00000000e-01
  4.38000000e-02  4.38000000e-02  4.17351100e+03  6.27457900e+02  1.42902100e+02
  4.02343300e+01  1.28202100e+01  4.39043700e+00  1.16263580e+01  2.71628000e+00
  7.72218000e-01  1.16263580e+01  2.71628000e+00  7.72218000e-01  2.12031300e-01
  2.12031300e-01  8.00000000e-01  6.39000000e-02  6.39000000e-02  3.04752490e+03
  4.57369510e+02  1.03948690e+02  2.92101550e+01  9.28666300e+00  3.16392700e+00
  7.86827240e+00  1.88128850e+00  5.44249300e-01  7.86827240e+00  1.88128850e+00
  5.44249300e-01  1.68714400e-01  1.68714400e-01  8.00000000e-01  4.38000000e-02
  4.38000000e-02  4.17351100e+03  6.27457900e+02  1.42902100e+02  4.02343300e+01
  1.28202100e+01  4.39043700e+00  1.16263580e+01  2.71628000e+00  7.72218000e-01
  1.16263580e+01  2.71628000e+00  7.72218000e-01  2.12031300e-01  2.12031300e-01
  8.00000000e-01  6.39000000e-02  6.39000000e-02  3.04752490e+03  4.57369510e+02
  1.03948690e+02  2.92101550e+01  9.28666300e+00  3.16392700e+00  7.86827240e+00
  1.88128850e+00  5.44249300e-01  7.86827240e+00  1.88128850e+00  5.44249300e-01
  1.68714400e-01  1.68714400e-01  8.00000000e-01  4.38000000e-02  4.38000000e-02
  3.04752490e+03  4.57369510e+02  1.03948690e+02  2.92101550e+01  9.28666300e+00
  3.16392700e+00  7.86827240e+00  1.88128850e+00  5.44249300e-01  7.86827240e+00
  1.88128850e+00  5.44249300e-01  1.68714400e-01  1.68714400e-01  8.00000000e-01
  4.38000000e-02  4.38000000e-02  3.04752490e+03  4.57369510e+02  1.03948690e+02
  2.92101550e+01  9.28666300e+00  3.16392700e+00  7.86827240e+00  1.88128850e+00
  5.44249300e-01  7.86827240e+00  1.88128850e+00  5.44249300e-01  1.68714400e-01
  1.68714400e-01  8.00000000e-01  4.38000000e-02  4.38000000e-02  3.04752490e+03
  4.57369510e+02  1.03948690e+02  2.92101550e+01  9.28666300e+00  3.16392700e+00
  7.86827240e+00  1.88128850e+00  5.44249300e-01  7.86827240e+00  1.88128850e+00
  5.44249300e-01  1.68714400e-01  1.68714400e-01  8.00000000e-01  4.38000000e-02
  4.38000000e-02  3.04752490e+03  4.57369510e+02  1.03948690e+02  2.92101550e+01
  9.28666300e+00  3.16392700e+00  7.86827240e+00  1.88128850e+00  5.44249300e-01
  7.86827240e+00  1.88128850e+00  5.44249300e-01  1.68714400e-01  1.68714400e-01
  8.00000000e-01  4.38000000e-02  4.38000000e-02  1.87311370e+01  2.82539370e+00
  6.40121700e-01  1.61277800e-01  3.04752490e+03  4.57369510e+02  1.03948690e+02
  2.92101550e+01  9.28666300e+00  3.16392700e+00  7.86827240e+00  1.88128850e+00
  5.44249300e-01  7.86827240e+00  1.88128850e+00  5.44249300e-01  1.68714400e-01
  1.68714400e-01  8.00000000e-01  4.38000000e-02  4.38000000e-02  3.04752490e+03
  4.57369510e+02  1.03948690e+02  2.92101550e+01  9.28666300e+00  3.16392700e+00
  7.86827240e+00  1.88128850e+00  5.44249300e-01  7.86827240e+00  1.88128850e+00
  5.44249300e-01  1.68714400e-01  1.68714400e-01  8.00000000e-01  4.38000000e-02
  4.38000000e-02  3.04752490e+03  4.57369510e+02  1.03948690e+02  2.92101550e+01
  9.28666300e+00  3.16392700e+00  7.86827240e+00  1.88128850e+00  5.44249300e-01
  7.86827240e+00  1.88128850e+00  5.44249300e-01  1.68714400e-01  1.68714400e-01
  8.00000000e-01  4.38000000e-02  4.38000000e-02  3.04752490e+03  4.57369510e+02
  1.03948690e+02  2.92101550e+01  9.28666300e+00  3.16392700e+00  7.86827240e+00
  1.88128850e+00  5.44249300e-01  7.86827240e+00  1.88128850e+00  5.44249300e-01
  1.68714400e-01  1.68714400e-01  8.00000000e-01  4.38000000e-02  4.38000000e-02
  3.04752490e+03  4.57369510e+02  1.03948690e+02  2.92101550e+01  9.28666300e+00
  3.16392700e+00  7.86827240e+00  1.88128850e+00  5.44249300e-01  7.86827240e+00
  1.88128850e+00  5.44249300e-01  1.68714400e-01  1.68714400e-01  8.00000000e-01
  4.38000000e-02  4.38000000e-02  3.04752490e+03  4.57369510e+02  1.03948690e+02
  2.92101550e+01  9.28666300e+00  3.16392700e+00  7.86827240e+00  1.88128850e+00
  5.44249300e-01  7.86827240e+00  1.88128850e+00  5.44249300e-01  1.68714400e-01
  1.68714400e-01  8.00000000e-01  4.38000000e-02  4.38000000e-02  1.87311370e+01
  2.82539370e+00  6.40121700e-01  1.61277800e-01  1.87311370e+01  2.82539370e+00
  6.40121700e-01  1.61277800e-01  1.87311370e+01  2.82539370e+00  6.40121700e-01
  1.61277800e-01  5.48467170e+03  8.25234950e+02  1.88046960e+02  5.29645000e+01
  1.68975700e+01  5.79963530e+00  1.55396160e+01  3.59993360e+00  1.01376180e+00
  1.55396160e+01  3.59993360e+00  1.01376180e+00  2.70005800e-01  2.70005800e-01
  8.00000000e-01  8.45000000e-02  8.45000000e-02  2.51801000e+04  3.78035000e+03
  8.60474000e+02  2.42145000e+02  7.73349000e+01  2.62470000e+01  4.91765000e+02
  1.16984000e+02  3.74153000e+01  1.37834000e+01  5.45215000e+00  2.22588000e+00
  4.91765000e+02  1.16984000e+02  3.74153000e+01  1.37834000e+01  5.45215000e+00
  2.22588000e+00  3.18649000e+00  1.14427000e+00  4.20377000e-01  3.18649000e+00
  1.14427000e+00  4.20377000e-01  1.42657000e-01  1.42657000e-01  7.50000000e-01
  4.83000000e-02  4.83000000e-02  3.04752490e+03  4.57369510e+02  1.03948690e+02
  2.92101550e+01  9.28666300e+00  3.16392700e+00  7.86827240e+00  1.88128850e+00
  5.44249300e-01  7.86827240e+00  1.88128850e+00  5.44249300e-01  1.68714400e-01
  1.68714400e-01  8.00000000e-01  4.38000000e-02  4.38000000e-02  3.04752490e+03
  4.57369510e+02  1.03948690e+02  2.92101550e+01  9.28666300e+00  3.16392700e+00
  7.86827240e+00  1.88128850e+00  5.44249300e-01  7.86827240e+00  1.88128850e+00
  5.44249300e-01  1.68714400e-01  1.68714400e-01  8.00000000e-01  4.38000000e-02
  4.38000000e-02  1.87311370e+01  2.82539370e+00  6.40121700e-01  1.61277800e-01
  1.87311370e+01  2.82539370e+00  6.40121700e-01  1.61277800e-01  1.87311370e+01
  2.82539370e+00  6.40121700e-01  1.61277800e-01  1.87311370e+01  2.82539370e+00
  6.40121700e-01  1.61277800e-01  1.87311370e+01  2.82539370e+00  6.40121700e-01
  1.61277800e-01  5.48467170e+03  8.25234950e+02  1.88046960e+02  5.29645000e+01
  1.68975700e+01  5.79963530e+00  1.55396160e+01  3.59993360e+00  1.01376180e+00
  1.55396160e+01  3.59993360e+00  1.01376180e+00  2.70005800e-01  2.70005800e-01
  8.00000000e-01  8.45000000e-02  8.45000000e-02  1.87311370e+01  2.82539370e+00
  6.40121700e-01  1.61277800e-01  1.87311370e+01  2.82539370e+00  6.40121700e-01
  1.61277800e-01
Contraction coefficients                   R   N=         396
  1.83470016e-03  1.40373012e-02  6.88426061e-02  2.32184421e-01  4.67941342e-01
  3.62312032e-01 -1.19332409e-01 -1.60854212e-01  1.14345648e+00  6.89990956e-02
  3.16423980e-01  7.44308252e-01  1.00000000e+00  1.00000000e+00  1.00000000e+00
  1.00000000e+00  1.00000000e+00  1.83479944e-03  1.39949958e-02  6.85869792e-02
  2.32240930e-01  4.69069858e-01  3.60454891e-01 -1.14961023e-01 -1.69118034e-01
  1.14585223e+00  6.75800232e-02  3.23907111e-01  7.40895255e-01  1.00000000e+00
  1.00000000e+00  1.00000000e+00  1.00000000e+00  1.00000000e+00  1.83470016e-03
  1.40373012e-02  6.88426061e-02  2.32184421e-01  4.67941342e-01  3.62312032e-01
 -1.19332409e-01 -1.60854212e-01  1.14345648e+00  6.89990956e-02  3.16423980e-01
  7.44308252e-01  1.00000000e+00  1.00000000e+00  1.00000000e+00  1.00000000e+00
  1.00000000e+00  1.83479944e-03  1.39949958e-02  6.85869792e-02  2.32240930e-01
  4.69069858e-01  3.60454891e-01 -1.14961023e-01 -1.69118034e-01  1.14585223e+00
  6.75800232e-02  3.23907111e-01  7.40895255e-01  1.00000000e+00  1.00000000e+00
  1.00000000e+00  1.00000000e+00  1.00000000e+00  1.83470016e-03  1.40373012e-02
  6.88426061e-02  2.32184421e-01  4.67941342e-01  3.62312032e-01 -1.19332409e-01
 -1.60854212e-01  1.14345648e+00  6.89990956e-02  3.16423980e-01  7.44308252e-01
  1.00000000e+00  1.00000000e+00  1.00000000e+00  1.00000000e+00  1.00000000e+00
  1.83470016e-03  1.40373012e-02  6.88426061e-02  2.32184421e-01  4.67941342e-01
  3.62312032e-01 -1.19332409e-01 -1.60854212e-01  1.14345648e+00  6.89990956e-02
  3.16423980e-01  7.44308252e-01  1.00000000e+00  1.00000000e+00  1.00000000e+00
  1.00000000e+00  1.00000000e+00  1.83470016e-03  1.40373012e-02  6.88426061e-02
  2.32184421e-01  4.67941342e-01  3.62312032e-01 -1.19332409e-01 -1.60854212e-01
  1.14345648e+00  6.89990956e-02  3.16423980e-01  7.44308252e-01  1.00000000e+00
  1.00000000e+00  1.00000000e+00  1.00000000e+00  1.00000000e+00  1.83470016e-03
  1.40373012e-02  6.88426061e-02  2.32184421e-01  4.67941342e-01  3.62312032e-01
 -1.19332409e-01 -1.60854212e-01  1.14345648e+00  6.89990956e-02  3.16423980e-01
  7.44308252e-01  1.00000000e+00  1.00000000e+00  1.00000000e+00  1.00000000e+00
  1.00000000e+00  1.83470016e-03  1.40373012e-02  6.88426061e-02  2.32184421e-01
  4.67941342e-01  3.62312032e-01 -1.19332409e-01 -1.60854212e-01  1.14345648e+00
  6.89990956e-02  3.16423980e-01  7.44308252e-01  1.00000000e+00  1.00000000e+00
  1.00000000e+00  1.00000000e+00  1.00000000e+00  3.34945995e-02  2.34726947e-01
  8.13757318e-01  1.00000000e+00  1.83470016e-03  1.40373012e-02  6.88426061e-02
  2.32184421e-01  4.67941342e-01  3.62312032e-01 -1.19332409e-01 -1.60854212e-01
  1.14345648e+00  6.89990956e-02  3.16423980e-01  7.44308252e-01  1.00000000e+00
  1.00000000e+00  1.00000000e+00  1.00000000e+00  1.00000000e+00  1.83470016e-03
  1.40373012e-02  6.88426061e-02  2.32184421e-01  4.67941342e-01  3.62312032e-01
 -1.19332409e-01 -1.60854212e-01  1.14345648e+00  6.89990956e-02  3.16423980e-01
  7.44308252e-01  1.00000000e+00  1.00000000e+00  1.00000000e+00  1.00000000e+00
  1.00000000e+00  1.83470016e-03  1.40373012e-02  6.88426061e-02  2.32184421e-01
  4.67941342e-01  3.62312032e-01 -1.19332409e-01 -1.60854212e-01  1.14345648e+00
  6.89990956e-02  3.16423980e-01  7.44308252e-01  1.00000000e+00  1.00000000e+00
  1.00000000e+00  1.00000000e+00  1.00000000e+00  1.83470016e-03  1.40373012e-02
  6.88426061e-02  2.32184421e-01  4.67941342e-01  3.62312032e-01 -1.19332409e-01
 -1.60854212e-01  1.14345648e+00  6.89990956e-02  3.16423980e-01  7.44308252e-01
  1.00000000e+00  1.00000000e+00  1.00000000e+00  1.00000000e+00  1.00000000e+00
  1.83470016e-03  1.40373012e-02  6.88426061e-02  2.32184421e-01  4.67941342e-01
  3.62312032e-01 -1.19332409e-01 -1.60854212e-01  1.14345648e+00  6.89990956e-02
  3.16423980e-01  7.44308252e-01  1.00000000e+00  1.00000000e+00  1.00000000e+00
  1.00000000e+00  1.00000000e+00  1.83470016e-03  1.40373012e-02  6.88426061e-02
  2.32184421e-01  4.67941342e-01  3.62312032e-01 -1.19332409e-01 -1.60854212e-01
  1.14345648e+00  6.89990956e-02  3.16423980e-01  7.44308252e-01  1.00000000e+00
  1.00000000e+00  1.00000000e+00  1.00000000e+00  1.00000000e+00  3.34945995e-02
  2.34726947e-01  8.13757318e-01  1.00000000e+00  3.34945995e-02  2.34726947e-01
  8.13757318e-01  1.00000000e+00  3.34945995e-02  2.34726947e-01  8.13757318e-01
  1.00000000e+00  1.83109981e-03  1.39500985e-02  6.84450927e-02  2.32714275e-01
  4.70192950e-01  3.58520862e-01 -1.10777504e-01 -1.48026305e-01  1.13076704e+00
  7.08742995e-02  3.39752798e-01  7.27158595e-01  1.00000000e+00  1.00000000e+00
  1.00000000e+00  1.00000000e+00  1.00000000e+00  1.83300031e-03  1.40340024e-02
  6.90970118e-02  2.37452040e-01  4.83034082e-01  3.39856058e-01 -2.29740199e-03
 -3.07140266e-02 -1.12528097e-01  4.50160390e-02  5.89353510e-01  4.65206403e-01
  3.98940055e-03  3.03180042e-02  1.29880018e-01  3.27951045e-01  4.53527062e-01
  2.52154035e-01 -2.51831288e-01  6.15893150e-02  1.06018542e+00 -1.42990127e-02
  3.23572288e-01  7.43507661e-01  1.00000000e+00  1.00000000e+00  1.00000000e+00
  1.00000000e+00  1.00000000e+00  1.83470016e-03  1.40373012e-02  6.88426061e-02
  2.32184421e-01  4.67941342e-01  3.62312032e-01 -1.19332409e-01 -1.60854212e-01
  1.14345648e+00  6.89990956e-02  3.16423980e-01  7.44308252e-01  1.00000000e+00
  1.00000000e+00  1.00000000e+00  1.00000000e+00  1.00000000e+00  1.83470016e-03
  1.40373012e-02  6.88426061e-02  2.32184421e-01  4.67941342e-01  3.62312032e-01
 -1.19332409e-01 -1.60854212e-01  1.14345648e+00  6.89990956e-02  3.16423980e-01
  7.44308252e-01  1.00000000e+00  1.00000000e+00  1.00000000e+00  1.00000000e+00
  1.00000000e+00  3.34945995e-02  2.34726947e-01  8.13757318e-01  1.00000000e+00
  3.34945995e-02  2.34726947e-01  8.13757318e-01  1.00000000e+00  3.34945995e-02
  2.34726947e-01  8.13757318e-01  1.00000000e+00  3.34945995e-02  2.34726947e-01
  8.13757318e-01  1.00000000e+00  3.34945995e-02  2.34726947e-01  8.13757318e-01
  1.00000000e+00  1.83109981e-03  1.39500985e-02  6.84450927e-02  2.32714275e-01
  4.70192950e-01  3.58520862e-01 -1.10777504e-01 -1.48026305e-01  1.13076704e+00
  7.08742995e-02  3.39752798e-01  7.27158595e-01  1.00000000e+00  1.00000000e+00
  1.00000000e+00  1.00000000e+00  1.00000000e+00  3.34945995e-02  2.34726947e-01
  8.13757318e-01  1.00000000e+00  3.34945995e-02  2.34726947e-01  8.13757318e-01
  1.00000000e+00
Coordinates of each shell                  R   N=         552
 -2.53422275e+00  2.09670892e+00 -1.26901998e+00 -2.53422275e+00  2.09670892e+00
 -1.26901998e+00 -2.53422275e+00  2.09670892e+00 -1.26901998e+00 -2.53422275e+00
  2.09670892e+00 -1.26901998e+00 -2.53422275e+00  2.09670892e+00 -1.26901998e+00
 -2.53422275e+00  2.09670892e+00 -1.26901998e+00 -2.53422275e+00  2.09670892e+00
 -1.26901998e+00 -2.53422275e+00  2.09670892e+00 -1.26901998e+00 -1.69803762e+00
  3.21878608e+00 -3.53602375e+00 -1.69803762e+00  3.21878608e+00 -3.53602375e+00
 -1.69803762e+00  3.21878608e+00 -3.53602375e+00 -1.69803762e+00  3.21878608e+00
 -3.53602375e+00 -1.69803762e+00  3.21878608e+00 -3.53602375e+00 -1.69803762e+00
  3.21878608e+00 -3.53602375e+00 -1.69803762e+00  3.21878608e+00 -3.53602375e+00
 -1.69803762e+00  3.21878608e+00 -3.53602375e+00 -5.76866996e-01  2.01817766e+00
 -5.54974173e+00 -5.76866996e-01  2.01817766e+00 -5.54974173e+00 -5.76866996e-01
  2.01817766e+00 -5.54974173e+00 -5.76866996e-01  2.01817766e+00 -5.54974173e+00
 -5.76866996e-01  2.01817766e+00 -5.54974173e+00 -5.76866996e-01  2.01817766e+00
 -5.54974173e+00 -5.76866996e-01  2.01817766e+00 -5.54974173e+00 -5.76866996e-01
  2.01817766e+00 -5.54974173e+00  1.94087952e+00 -1.01174164e+00 -3.27720506e+00
  1.94087952e+00 -1.01174164e+00 -3.27720506e+00  1.94087952e+00 -1.01174164e+00
 -3.27720506e+00  1.94087952e+00 -1.01174164e+00 -3.27720506e+00  1.94087952e+00
 -1.01174164e+00 -3.27720506e+00  1.94087952e+00 -1.01174164e+00 -3.27720506e+00
  1.94087952e+00 -1.01174164e+00 -3.27720506e+00  1.94087952e+00 -1.01174164e+00
 -3.27720506e+00 -4.59190590e-02 -8.13126663e-01 -5.15874606e+00 -4.59190590e-02
 -8.13126663e-01 -5.15874606e+00 -4.59190590e-02 -8.13126663e-01 -5.15874606e+00
 -4.59190590e-02 -8.13126663e-01 -5.15874606e+00 -4.59190590e-02 -8.13126663e-01
 -5.15874606e+00 -4.59190590e-02 -8.13126663e-01 -5.15874606e+00 -4.59190590e-02
 -8.13126663e-01 -5.15874606e+00 -4.59190590e-02 -8.13126663e-01 -5.15874606e+00
  1.44319976e+00 -5.74570730e-01 -9.36859918e-01  1.44319976e+00 -5.74570730e-01
 -9.36859918e-01  1.44319976e+00 -5.74570730e-01 -9.36859918e-01  1.44319976e+00
 -5.74570730e-01 -9.36859918e-01  1.44319976e+00 -5.74570730e-01 -9.36859918e-01
  1.44319976e+00 -5.74570730e-01 -9.36859918e-01  1.44319976e+00 -5.74570730e-01
 -9.36859918e-01  1.44319976e+00 -5.74570730e-01 -9.36859918e-01 -1.08603709e+00
  2.52372686e-01  1.20814257e-02 -1.08603709e+00  2.52372686e-01  1.20814257e-02
 -1.08603709e+00  2.52372686e-01  1.20814257e-02 -1.08603709e+00  2.52372686e-01
  1.20814257e-02 -1.08603709e+00  2.52372686e-01  1.20814257e-02 -1.08603709e+00
  2.52372686e-01  1.20814257e-02 -1.08603709e+00  2.52372686e-01  1.20814257e-02
 -1.08603709e+00  2.52372686e-01  1.20814257e-02 -4.35642101e+00  2.65590040e-02
  3.23247059e+00 -4.35642101e+00  2.65590040e-02  3.23247059e+00 -4.35642101e+00
  2.65590040e-02  3.23247059e+00 -4.35642101e+00  2.65590040e-02  3.23247059e+00
 -4.35642101e+00  2.65590040e-02  3.23247059e+00 -4.35642101e+00  2.65590040e-02
  3.23247059e+00 -4.35642101e+00  2.65590040e-02  3.23247059e+00 -4.35642101e+00
  2.65590040e-02  3.23247059e+00 -2.05450045e+00 -7.79744165e-01  2.26416983e+00
 -2.05450045e+00 -7.79744165e-01  2.26416983e+00 -2.05450045e+00 -7.79744165e-01
  2.26416983e+00 -2.05450045e+00 -7.79744165e-01  2.26416983e+00 -2.05450045e+00
 -7.79744165e-01  2.26416983e+00 -2.05450045e+00 -7.79744165e-01  2.26416983e+00
 -2.05450045e+00 -7.79744165e-01  2.26416983e+00 -2.05450045e+00 -7.79744165e-01
  2.26416983e+00 -9.78162408e-01 -2.21369362e+00  3.25662763e+00 -9.78162408e-01
 -2.21369362e+00  3.25662763e+00  3.53958213e+00 -9.25148500e-01  9.21240310e-01
  3.53958213e+00 -9.25148500e-01  9.21240310e-01  3.53958213e+00 -9.25148500e-01
  9.21240310e-01  3.53958213e+00 -9.25148500e-01  9.21240310e-01  3.53958213e+00
 -9.25148500e-01  9.21240310e-01  3.53958213e+00 -9.25148500e-01  9.21240310e-01
  3.53958213e+00 -9.25148500e-01  9.21240310e-01  3.53958213e+00 -9.25148500e-01
  9.21240310e-01  3.71316777e+00  5.36564529e-01  3.13102178e+00  3.71316777e+00
  5.36564529e-01  3.13102178e+00  3.71316777e+00  5.36564529e-01  3.13102178e+00
  3.71316777e+00  5.36564529e-01  3.13102178e+00  3.71316777e+00  5.36564529e-01
  3.13102178e+00  3.71316777e+00  5.36564529e-01  3.13102178e+00  3.71316777e+00
  5.36564529e-01  3.13102178e+00  3.71316777e+00  5.36564529e-01  3.13102178e+00
  5.74542499e+00  2.29156756e-01  4.78714081e+00  5.74542499e+00  2.29156756e-01
  4.78714081e+00  5.74542499e+00  2.29156756e-01  4.78714081e+00  5.74542499e+00
  2.29156756e-01  4.78714081e+00  5.74542499e+00  2.29156756e-01  4.78714081e+00
  5.74542499e+00  2.29156756e-01  4.78714081e+00  5.74542499e+00  2.29156756e-01
  4.78714081e+00  5.74542499e+00  2.29156756e-01  4.78714081e+00  7.61849782e+00
 -1.55727079e+00  4.26894461e+00  7.61849782e+00 -1.55727079e+00  4.26894461e+00
  7.61849782e+00 -1.55727079e+00  4.26894461e+00  7.61849782e+00 -1.55727079e+00
  4.26894461e+00  7.61849782e+00 -1.55727079e+00  4.26894461e+00  7.61849782e+00
 -1.55727079e+00  4.26894461e+00  7.61849782e+00 -1.55727079e+00  4.26894461e+00
  7.61849782e+00 -1.55727079e+00  4.26894461e+00  7.46053065e+00 -3.02271577e+00
  2.07321650e+00  7.46053065e+00 -3.02271577e+00  2.07321650e+00  7.46053065e+00
 -3.02271577e+00  2.07321650e+00  7.46053065e+00 -3.02271577e+00  2.07321650e+00
  7.46053065e+00 -3.02271577e+00  2.07321650e+00  7.46053065e+00 -3.02271577e+00
  2.07321650e+00  7.46053065e+00 -3.02271577e+00  2.07321650e+00  7.46053065e+00