Generated by Psi4
     FORCE                           RHF                       TESTBAS
Number of atoms                            I               21
Charge                                     I                0
Multiplicity                               I                1
Number of electrons                        I               92
Number of alpha electrons                  I               46
Number of beta electrons                   I               46
Number of basis functions                  I              263
Number of independent functions            I              263
Atomic numbers                             I   N=          21
           6           7           6           6           8           8
           7           1           1           6           1           6
           6           6           6           6           1           1
           1           1           1
Nuclear charges                            R   N=          21
  6.00000000e+00  7.00000000e+00  6.00000000e+00  6.00000000e+00  8.00000000e+00
  8.00000000e+00  7.00000000e+00  1.00000000e+00  1.00000000e+00  6.00000000e+00
  1.00000000e+00  6.00000000e+00  6.00000000e+00  6.00000000e+00  6.00000000e+00
  6.00000000e+00  1.00000000e+00  1.00000000e+00  1.00000000e+00  1.00000000e+00
  1.00000000e+00
Current cartesian coordinates              R   N=          63
  1.94577186e+00 -3.98759989e+00  1.34569140e+00  9.31140702e-01 -3.23691271e+00
  3.46374454e+00  7.20548700e-01 -6.24207271e-01  3.26027780e+00  1.75927486e+00
  1.61896423e-01  6.12658628e-01  2.50760959e+00 -2.25290337e+00 -4.48475904e-01
 -7.18552806e-02  8.49635219e-01  4.82394313e+00  2.49517618e+00 -6.38498976e+00
  7.38376745e-01  2.18804610e+00 -7.75923438e+00  2.02461735e+00  3.36746552e+00
 -6.79561767e+00 -9.07662994e-01 -1.09268276e-01  1.53861513e+00 -1.03986185e+00
  3.48087280e+00  1.27974952e+00  8.72461330e-01 -1.63105829e+00  2.68457822e-01
 -2.79186265e+00 -3.40254115e+00  1.60284295e+00 -4.22546590e+00 -3.67794116e+00
  4.21006038e+00 -3.91267384e+00 -2.16433300e+00  5.48178968e+00 -2.16045591e+00
 -3.83652383e-01  4.15491759e+00 -7.36337334e-01 -1.41980815e+00 -1.75577554e+00
 -3.05173987e+00 -4.56859811e+00  5.99900986e-01 -5.58717449e+00 -5.05817541e+00
  5.24422330e+00 -5.02814193e+00 -2.36389784e+00  7.50980488e+00 -1.90393962e+00
  7.81938766e-01  5.14986634e+00  6.31431506e-01
Integer atomic weights                     I   N=          21
          12          14          12          12          15          15
          14           1           1          12           1          12
          12          12          12          12           1           1
           1           1           1
Real atomic weights                        R   N=          21
  1.20000000e+01  1.40030740e+01  1.20000000e+01  1.20000000e+01  1.59949146e+01
  1.59949146e+01  1.40030740e+01  1.00782503e+00  1.00782503e+00  1.20000000e+01
  1.00782503e+00  1.20000000e+01  1.20000000e+01  1.20000000e+01  1.20000000e+01
  1.20000000e+01  1.00782503e+00  1.00782503e+00  1.00782503e+00  1.00782503e+00
  1.00782503e+00
Number of primitive shells                 I              253
Number of contracted shells                I              120
Pure/Cartesian d shells                    I                1
Pure/Cartesian f shells                    I                1
Highest angular momentum                   I                2
Largest degree of contraction              I                6
Shell types                                I   N=         120
           0           0           1           0           1           2
           0           1           0           0           1           0
           1           2           0           1           0           0
           1           0           1           2           0           1
           0           0           1           0           1           2
           0           1           0           0           1           0
           1           2           0           1           0           0
           1           0           1           2           0           1
           0           0           1           0           1           2
           0           1           0           0           0           0
           0           0           1           0           1           2
           0           1           0           0           0           0
           1           0           1           2           0           1
           0           0           1           0           1           2
           0           1           0           0           1           0
           1           2           0           1           0           0
           1           0           1           2           0           1
           0           0           1           0           1           2
           0           1           0           0           0           0
           0           0           0           0           0           0
Number of primitives per shell             I   N=         120
           6           3           3           1           1           1
           1           1           6           3           3           1
           1           1           1           1           6           3
           3           1           1           1           1           1
           6           3           3           1           1           1
           1           1           6           3           3           1
           1           1           1           1           6           3
           3           1           1           1           1           1
           6           3           3           1           1           1
           1           1           3           1           3           1
           6           3           3           1           1           1
           1           1           3           1           6           3
           3           1           1           1           1           1
           6           3           3           1           1           1
           1           1           6           3           3           1
           1           1           1           1           6           3
           3           1           1           1           1           1
           6           3           3           1           1           1
           1           1           3           1           3           1
           3           1           3           1           3           1
Shell to atom map                          I   N=         120
           1           1           1           1           1           1
           1           1           2           2           2           2
           2           2           2           2           3           3
           3           3           3           3           3           3
           4           4           4           4           4           4
           4           4           5           5           5           5
           5           5           5           5           6           6
           6           6           6           6           6           6
           7           7           7           7           7           7
           7           7           8           8           9           9
          10          10          10          10          10          10
          10          10          11          11          12          12
          12          12          12          12          12          12
          13          13          13          13          13          13
          13          13          14          14          14          14
          14          14          14          14          15          15
          15          15          15          15          15          15
          16          16          16          16          16          16
          16          16          17          17          18          18
          19          19          20          20          21          21
Primitive exponents                        R   N=         253
  3.04752490e+03  4.57369510e+02  1.03948690e+02  2.92101550e+01  9.28666300e+00
  3.16392700e+00  7.86827240e+00  1.88128850e+00  5.44249300e-01  7.86827240e+00
  1.88128850e+00  5.44249300e-01  1.68714400e-01  1.68714400e-01  8.00000000e-01
  4.38000000e-02  4.38000000e-02  4.17351100e+03  6.27457900e+02  1.42902100e+02
  4.02343300e+01  1.28202100e+01  4.39043700e+00  1.16263580e+01  2.71628000e+00
  7.72218000e-01  1.16263580e+01  2.71628000e+00  7.72218000e-01  2.12031300e-01
  2.12031300e-01  8.00000000e-01  6.39000000e-02  6.39000000e-02  3.04752490e+03
  4.57369510e+02  1.03948690e+02  2.92101550e+01  9.28666300e+00  3.16392700e+00
  7.86827240e+00  1.88128850e+00  5.44249300e-01  7.86827240e+00  1.88128850e+00
  5.44249300e-01  1.68714400e-01  1.68714400e-01  8.00000000e-01  4.38000000e-02
  4.38000000e-02  3.04752490e+03  4.57369510e+02  1.03948690e+02  2.92101550e+01
  9.28666300e+00  3.16392700e+00  7.86827240e+00  1.88128850e+00  5.44249300e-01
  7.86827240e+00  1.88128850e+00  5.44249300e-01  1.68714400e-01  1.68714400e-01
  8.00000000e-01  4.38000000e-02  4.38000000e-02  5.48467170e+03  8.25234950e+02
  1.88046960e+02  5.29645000e+01  1.68975700e+01  5.79963530e+00  1.55396160e+01
  3.59993360e+00  1.01376180e+00  1.55396160e+01  3.59993360e+00  1.01376180e+00
  2.70005800e-01  2.70005800e-01  8.00000000e-01  8.45000000e-02  8.45000000e-02
  5.48467170e+03  8.25234950e+02  1.88046960e+02  5.29645000e+01  1.68975700e+01
  5.79963530e+00  1.55396160e+01  3.59993360e+00  1.01376180e+00  1.55396160e+01
  3.59993360e+00  1.01376180e+00  2.70005800e-01  2.70005800e-01  8.00000000e-01
  8.45000000e-02  8.45000000e-02  4.17351100e+03  6.27457900e+02  1.42902100e+02
  4.02343300e+01  1.28202100e+01  4.39043700e+00  1.16263580e+01  2.71628000e+00
  7.72218000e-01  1.16263580e+01  2.71628000e+00  7.72218000e-01  2.12031300e-01
  2.12031300e-01  8.00000000e-01  6.39000000e-02  6.39000000e-02  1.87311370e+01
  2.82539370e+00  6.40121700e-01  1.61277800e-01  1.87311370e+01  2.82539370e+00
  6.40121700e-01  1.61277800e-01  3.04752490e+03  4.57369510e+02  1.03948690e+02
  2.92101550e+01  9.28666300e+00  3.16392700e+00  7.86827240e+00  1.88128850e+00
  5.44249300e-01  7.86827240e+00  1.88128850e+00  5.44249300e-01  1.68714400e-01
  1.68714400e-01  8.00000000e-01  4.38000000e-02  4.38000000e-02  1.87311370e+01
  2.82539370e+00  6.40121700e-01  1.61277800e-01  3.04752490e+03  4.57369510e+02
  1.03948690e+02  2.92101550e+01  9.28666300e+00  3.16392700e+00  7.86827240e+00
  1.88128850e+00  5.44249300e-01  7.86827240e+00  1.88128850e+00  5.44249300e-01
  1.68714400e-01  1.68714400e-01  8.00000000e-01  4.38000000e-02  4.38000000e-02
  3.04752490e+03  4.57369510e+02  1.03948690e+02  2.92101550e+01  9.28666300e+00
  3.16392700e+00  7.86827240e+00  1.88128850e+00  5.44249300e-01  7.86827240e+00
  1.88128850e+00  5.44249300e-01  1.68714400e-01  1.68714400e-01  8.00000000e-01
  4.38000000e-02  4.38000000e-02  3.04752490e+03  4.57369510e+02  1.03948690e+02
  2.92101550e+01  9.28666300e+00  3.16392700e+00  7.86827240e+00  1.88128850e+00
  5.44249300e-01  7.86827240e+00  1.88128850e+00  5.44249300e-01  1.68714400e-01
  1.68714400e-01  8.00000000e-01  4.38000000e-02  4.38000000e-02  3.04752490e+03
  4.57369510e+02  1.03948690e+02  2.92101550e+01  9.28666300e+00  3.16392700e+00
  7.86827240e+00  1.88128850e+00  5.44249300e-01  7.86827240e+00  1.88128850e+00
  5.44249300e-01  1.68714400e-01  1.68714400e-01  8.00000000e-01  4.38000000e-02
  4.38000000e-02  3.04752490e+03  4.57369510e+02  1.03948690e+02  2.92101550e+01
  9.28666300e+00  3.16392700e+00  7.86827240e+00  1.88128850e+00  5.44249300e-01
  7.86827240e+00  1.88128850e+00  5.44249300e-01  1.68714400e-01  1.68714400e-01
  8.00000000e-01  4.38000000e-02  4.38000000e-02  1.87311370e+01  2.82539370e+00
  6.40121700e-01  1.61277800e-01  1.87311370e+01  2.82539370e+00  6.40121700e-01
  1.61277800e-01  1.87311370e+01  2.82539370e+00  6.40121700e-01  1.61277800e-01
  1.87311370e+01  2.82539370e+00  6.40121700e-01  1.61277800e-01  1.87311370e+01
  2.82539370e+00  6.40121700e-01  1.61277800e-01
Contraction coefficients                   R   N=         253
  1.83470016e-03  1.40373012e-02  6.88426061e-02  2.32184421e-01  4.67941342e-01
  3.62312032e-01 -1.19332409e-01 -1.60854212e-01  1.14345648e+00  6.89990956e-02
  3.16423980e-01  7.44308252e-01  1.00000000e+00  1.00000000e+00  1.00000000e+00
  1.00000000e+00  1.00000000e+00  1.83479944e-03  1.39949958e-02  6.85869792e-02
  2.32240930e-01  4.69069858e-01  3.60454891e-01 -1.14961023e-01 -1.69118034e-01
  1.14585223e+00  6.75800232e-02  3.23907111e-01  7.40895255e-01  1.00000000e+00
  1.00000000e+00  1.00000000e+00  1.00000000e+00  1.00000000e+00  1.83470016e-03
  1.40373012e-02  6.88426061e-02  2.32184421e-01  4.67941342e-01  3.62312032e-01
 -1.19332409e-01 -1.60854212e-01  1.14345648e+00  6.89990956e-02  3.16423980e-01
  7.44308252e-01  1.00000000e+00  1.00000000e+00  1.00000000e+00  1.00000000e+00
  1.00000000e+00  1.83470016e-03  1.40373012e-02  6.88426061e-02  2.32184421e-01
  4.67941342e-01  3.62312032e-01 -1.19332409e-01 -1.60854212e-01  1.14345648e+00
  6.89990956e-02  3.16423980e-01  7.44308252e-01  1.00000000e+00  1.00000000e+00
  1.00000000e+00  1.00000000e+00  1.00000000e+00  1.83109981e-03  1.39500985e-02
  6.84450927e-02  2.32714275e-01  4.70192950e-01  3.58520862e-01 -1.10777504e-01
 -1.48026305e-01  1.13076704e+00  7.08742995e-02  3.39752798e-01  7.27158595e-01
  1.00000000e+00  1.00000000e+00  1.00000000e+00  1.00000000e+00  1.00000000e+00
  1.83109981e-03  1.39500985e-02  6.84450927e-02  2.32714275e-01  4.70192950e-01
  3.58520862e-01 -1.10777504e-01 -1.48026305e-01  1.13076704e+00  7.08742995e-02
  3.39752798e-01  7.27158595e-01  1.00000000e+00  1.00000000e+00  1.00000000e+00
  1.00000000e+00  1.00000000e+00  1.83479944e-03  1.39949958e-02  6.85869792e-02
  2.32240930e-01  4.69069858e-01  3.60454891e-01 -1.14961023e-01 -1.69118034e-01
  1.14585223e+00  6.75800232e-02  3.23907111e-01  7.40895255e-01  1.00000000e+00
  1.00000000e+00  1.00000000e+00  1.00000000e+00  1.00000000e+00  3.34945995e-02
  2.34726947e-01  8.13757318e-01  1.00000000e+00  3.34945995e-02  2.34726947e-01
  8.13757318e-01  1.00000000e+00  1.83470016e-03  1.40373012e-02  6.88426061e-02
  2.32184421e-01  4.67941342e-01  3.62312032e-01 -1.19332409e-01 -1.60854212e-01
  1.14345648e+00  6.89990956e-02  3.16423980e-01  7.44308252e-01  1.00000000e+00
  1.00000000e+00  1.00000000e+00  1.00000000e+00  1.00000000e+00  3.34945995e-02
  2.34726947e-01  8.13757318e-01  1.00000000e+00  1.83470016e-03  1.40373012e-02
  6.88426061e-02  2.32184421e-01  4.67941342e-01  3.62312032e-01 -1.19332409e-01
 -1.60854212e-01  1.14345648e+00  6.89990956e-02  3.16423980e-01  7.44308252e-01
  1.00000000e+00  1.00000000e+00  1.00000000e+00  1.00000000e+00  1.00000000e+00
  1.83470016e-03  1.40373012e-02  6.88426061e-02  2.32184421e-01  4.67941342e-01
  3.62312032e-01 -1.19332409e-01 -1.60854212e-01  1.14345648e+00  6.89990956e-02
  3.16423980e-01  7.44308252e-01  1.00000000e+00  1.00000000e+00  1.00000000e+00
  1.00000000e+00  1.00000000e+00  1.83470016e-03  1.40373012e-02  6.88426061e-02
  2.32184421e-01  4.67941342e-01  3.62312032e-01 -1.19332409e-01 -1.60854212e-01
  1.14345648e+00  6.89990956e-02  3.16423980e-01  7.44308252e-01  1.00000000e+00
  1.00000000e+00  1.00000000e+00  1.00000000e+00  1.00000000e+00  1.83470016e-03
  1.40373012e-02  6.88426061e-02  2.32184421e-01  4.67941342e-01  3.62312032e-01
 -1.19332409e-01 -1.60854212e-01  1.14345648e+00  6.89990956e-02  3.16423980e-01
  7.44308252e-01  1.00000000e+00  1.00000000e+00  1.00000000e+00  1.00000000e+00
  1.00000000e+00  1.83470016e-03  1.40373012e-02  6.88426061e-02  2.32184421e-01
  4.67941342e-01  3.62312032e-01 -1.19332409e-01 -1.60854212e-01  1.14345648e+00
  6.89990956e-02  3.16423980e-01  7.44308252e-01  1.00000000e+00  1.00000000e+00
  1.00000000e+00  1.00000000e+00  1.00000000e+00  3.34945995e-02  2.34726947e-01
  8.13757318e-01  1.00000000e+00  3.34945995e-02  2.34726947e-01  8.13757318e-01
  1.00000000e+00  3.34945995e-02  2.34726947e-01  8.13757318e-01  1.00000000e+00
  3.34945995e-02  2.34726947e-01  8.13757318e-01  1.00000000e+00  3.34945995e-02
  2.34726947e-01  8.13757318e-01  1.00000000e+00
Coordinates of each shell                  R   N=         360
  1.94577186e+00 -3.98759989e+00  1.34569140e+00  1.94577186e+00 -3.98759989e+00
  1.34569140e+00  1.94577186e+00 -3.98759989e+00  1.34569140e+00  1.94577186e+00
 -3.98759989e+00  1.34569140e+00  1.94577186e+00 -3.98759989e+00  1.34569140e+00
  1.94577186e+00 -3.98759989e+00  1.34569140e+00  1.94577186e+00 -3.98759989e+00
  1.34569140e+00  1.94577186e+00 -3.98759989e+00  1.34569140e+00  9.31140702e-01
 -3.23691271e+00  3.46374454e+00  9.31140702e-01 -3.23691271e+00  3.46374454e+00
  9.31140702e-01 -3.23691271e+00  3.46374454e+00  9.31140702e-01 -3.23691271e+00
  3.46374454e+00  9.31140702e-01 -3.23691271e+00  3.46374454e+00  9.31140702e-01
 -3.23691271e+00  3.46374454e+00  9.31140702e-01 -3.23691271e+00  3.46374454e+00
  9.31140702e-01 -3.23691271e+00  3.46374454e+00  7.20548700e-01 -6.24207271e-01
  3.26027780e+00  7.20548700e-01 -6.24207271e-01  3.26027780e+00  7.20548700e-01
 -6.24207271e-01  3.26027780e+00  7.20548700e-01 -6.24207271e-01  3.26027780e+00
  7.20548700e-01 -6.24207271e-01  3.26027780e+00  7.20548700e-01 -6.24207271e-01
  3.26027780e+00  7.20548700e-01 -6.24207271e-01  3.26027780e+00  7.20548700e-01
 -6.24207271e-01  3.26027780e+00  1.75927486e+00  1.61896423e-01  6.12658628e-01
  1.75927486e+00  1.61896423e-01  6.12658628e-01  1.75927486e+00  1.61896423e-01
  6.12658628e-01  1.75927486e+00  1.61896423e-01  6.12658628e-01  1.75927486e+00
  1.61896423e-01  6.12658628e-01  1.75927486e+00  1.61896423e-01  6.12658628e-01
  1.75927486e+00  1.61896423e-01  6.12658628e-01  1.75927486e+00  1.61896423e-01
  6.12658628e-01  2.50760959e+00 -2.25290337e+00 -4.48475904e-01  2.50760959e+00
 -2.25290337e+00 -4.48475904e-01  2.50760959e+00 -2.25290337e+00 -4.48475904e-01
  2.50760959e+00 -2.25290337e+00 -4.48475904e-01  2.50760959e+00 -2.25290337e+00
 -4.48475904e-01  2.50760959e+00 -2.25290337e+00 -4.48475904e-01  2.50760959e+00
 -2.25290337e+00 -4.48475904e-01  2.50760959e+00 -2.25290337e+00 -4.48475904e-01
 -7.18552806e-02  8.49635219e-01  4.82394313e+00 -7.18552806e-02  8.49635219e-01
  4.82394313e+00 -7.18552806e-02  8.49635219e-01  4.82394313e+00 -7.18552806e-02
  8.49635219e-01  4.82394313e+00 -7.18552806e-02  8.49635219e-01  4.82394313e+00
 -7.18552806e-02  8.49635219e-01  4.82394313e+00 -7.18552806e-02  8.49635219e-01
  4.82394313e+00 -7.18552806e-02  8.49635219e-01  4.82394313e+00  2.49517618e+00
 -6.38498976e+00  7.38376745e-01  2.49517618e+00 -6.38498976e+00  7.38376745e-01
  2.49517618e+00 -6.38498976e+00  7.38376745e-01  2.49517618e+00 -6.38498976e+00
  7.38376745e-01  2.49517618e+00 -6.38498976e+00  7.38376745e-01  2.49517618e+00
 -6.38498976e+00  7.38376745e-01  2.49517618e+00 -6.38498976e+00  7.38376745e-01
  2.49517618e+00 -6.38498976e+00  7.38376745e-01  2.18804610e+00 -7.75923438e+00
  2.02461735e+00  2.18804610e+00 -7.75923438e+00  2.02461735e+00  3.36746552e+00
 -6.79561767e+00 -9.07662994e-01  3.36746552e+00 -6.79561767e+00 -9.07662994e-01
 -1.09268276e-01  1.53861513e+00 -1.03986185e+00 -1.09268276e-01  1.53861513e+00
 -1.03986185e+00 -1.09268276e-01  1.53861513e+00 -1.03986185e+00 -1.09268276e-01
  1.53861513e+00 -1.03986185e+00 -1.09268276e-01  1.53861513e+00 -1.03986185e+00
 -1.09268276e-01  1.53861513e+00 -1.03986185e+00 -1.09268276e-01  1.53861513e+00
 -1.03986185e+00 -1.09268276e-01  1.53861513e+00 -1.03986185e+00  3.48087280e+00
  1.27974952e+00  8.72461330e-01  3.48087280e+00  1.27974952e+00  8.72461330e-01
 -1.63105829e+00  2.68457822e-01 -2.79186265e+00 -1.63105829e+00  2.68457822e-01
 -2.79186265e+00 -1.63105829e+00  2.68457822e-01 -2.79186265e+00 -1.63105829e+00
  2.68457822e-01 -2.79186265e+00 -1.63105829e+00  2.68457822e-01 -2.79186265e+00
 -1.63105829e+00  2.68457822e-01 -2.79186265e+00 -1.63105829e+00  2.68457822e-01
 -2.79186265e+00 -1.63105829e+00  2.68457822e-01 -2.79186265e+00 -3.40254115e+00
  1.60284295e+00 -4.22546590e+00 -3.40254115e+00  1.60284295e+00 -4.22546590e+00
 -3.40254115e+00  1.60284295e+00 -4.22546590e+00 -3.40254115e+00  1.60284295e+00
 -4.22546590e+00 -3.40254115e+00  1.60284295e+00 -4.22546590e+00 -3.40254115e+00
  1.60284295e+00 -4.22546590e+00 -3.40254115e+00  1.60284295e+00 -4.22546590e+00
 -3.40254115e+00  1.60284295e+00 -4.22546590e+00 -3.67794116e+00  4.21006038e+00
 -3.91267384e+00 -3.67794116e+00  4.21006038e+00 -3.91267384e+00 -3.67794116e+00
  4.21006038e+00 -3.91267384e+00 -3.67794116e+00  4.21006038e+00 -3.91267384e+00
 -3.67794116e+00  4.21006038e+00 -3.91267384e+00 -3.67794116e+00  4.21006038e+00
 -3.91267384e+00 -3.67794116e+00  4.21006038e+00 -3.91267384e+00 -3.67794116e+00
  4.21006038e+00 -3.91267384e+00 -2.16433300e+00  5.48178968e+00 -2.16045591e+00
 -2.16433300e+00  5.48178968e+00 -2.16045591e+00 -2.16433300e+00  5.48178968e+00
 -2.16045591e+00 -2.16433300e+00  5.48178968e+00 -2.16045591e+00 -2.16433300e+00
  5.48178968e+00 -2.16045591e+00 -2.16433300e+00  5.48178968e+00 -2.16045591e+00
 -2.16433300e+00  5.48178968e+00 -2.16045591e+00 -2.16433300e+00  5.48178968e+00
 -2.16045591e+00 -3.83652383e-01  4.15491759e+00 -7.36337334e-01 -3.83652383e-01
  4.15491759e+00 -7.36337334e-01 -3.83652383e-01  4.15491759e+00 -7.36337334e-01
 -3.83652383e-01  4.15491759e+00 -7.36337334e-01 -3.83652383e-01  4.15491759e+00
 -7.36337334e-01 -3.83652383e-01  4.15491759e+00 -7.36337334e-01 -3.83652383e-01
  4.15491759e+00 -7.36337334e-01 -3.83652383e-01  4.15491759e+00 -7.36337334e-01
 -1.41980815e+00 -1.75577554e+00 -3.05173987e+00 -1.41980815e+00 -1.75577554e+00
 -3.05173987e+00 -4.56859811e+00  5.99900986e-01 -5.58717449e+00 -4.56859811e+00
  5.99900986e-01 -5.58717449e+00 -5.05817541e+00  5.24422330e+00 -5.02814193e+00
 -5.05817541e+00  5.24422330e+00 -5.02814193e+00 -2.36389784e+00  7.50980488e+00
 -1.90393962e+00 -2.36389784e+00  7.50980488e+00 -1.90393962e+00  7.81938766e-01
  5.14986634e+00  6.31431506e-01  7.81938766e-01  5.14986634e+00  6.31431506e-01
Total Energy                               R     -6.077613860256089e+02
Alpha Orbital Energies                     R   N=         263
 -1.92302341e+01 -1.91388390e+01 -1.44070728e+01 -1.43366790e+01 -1.03544324e+01
 -1.02995131e+01 -1.02766646e+01 -1.02181221e+01 -1.02050901e+01 -1.02041698e+01
 -1.02040535e+01 -1.02033857e+01 -1.02026038e+01 -1.14177636e+00 -1.04520872e+00
 -9.77696928e-01 -9.21732020e-01 -8.70517222e-01 -7.95382189e-01 -7.57530991e-01
 -7.27716362e-01 -6.53727126e-01 -6.29443260e-01 -6.15285309e-01 -6.00027134e-01
 -5.58260491e-01 -5.44528641e-01 -5.38115975e-01 -5.12330281e-01 -4.81192263e-01
 -4.65268582e-01 -4.50441469e-01 -4.45706924e-01 -4.32056416e-01 -4.27994340e-01
 -4.15992093e-01 -3.96420438e-01 -3.73514472e-01 -3.65925978e-01 -3.56196751e-01
 -3.27787344e-01 -3.14633425e-01 -2.76405449e-01 -2.75122090e-01 -2.62818020e-01
 -2.48041049e-01 -3.60077018e-02 -2.45885087e-02 -1.95337093e-02 -1.89900207e-02
  6.91042249e-03  1.63693631e-02  2.62557794e-02  3.27738245e-02  3.71234085e-02
  4.68675463e-02  4.72774353e-02  5.56997032e-02  5.86615819e-02  6.60966920e-02
  7.37266506e-02  8.15043170e-02  8.61698642e-02  9.30107449e-02  9.73523603e-02
  1.07978835e-01  1.13667559e-01  1.16104809e-01  1.23174793e-01  1.26320702e-01
  1.32922478e-01  1.39236576e-01  1.43160795e-01  1.52043362e-01  1.55962342e-01
  1.62677269e-01  1.63185435e-01  1.65461469e-01  1.72746796e-01  1.78482614e-01
  1.86266458e-01  1.89047228e-01  1.92435322e-01  1.97890424e-01  2.09239241e-01
  2.09912962e-01  2.17711510e-01  2.19264983e-01  2.22957131e-01  2.30279614e-01
  2.36332786e-01  2.42230844e-01  2.44987177e-01  2.49907157e-01  2.56402126e-01
  2.59164768e-01  2.63518745e-01  2.69867863e-01  2.72467796e-01  2.75900435e-01
  2.83231507e-01  2.90178210e-01  3.01114821e-01  3.08384155e-01  3.13269579e-01
  3.22809390e-01  3.33018150e-01  3.38983925e-01  3.41314765e-01  3.45227984e-01
  3.51847040e-01  3.58692209e-01  3.69105561e-01  3.76746273e-01  3.84193597e-01
  3.86365573e-01  3.89940625e-01  4.02174535e-01  4.35034908e-01  4.52187213e-01
  4.60484566e-01  4.90810677e-01  5.32080986e-01  5.73071470e-01  6.03256259e-01
  6.62470693e-01  6.74364709e-01  6.91537900e-01  7.05491621e-01  7.10465252e-01
  7.21203540e-01  7.24507057e-01  7.34974986e-01  7.42219829e-01  7.47786088e-01
  7.57082963e-01  7.67171636e-01  7.87930633e-01  7.92275542e-01  7.98111564e-01
  8.19232597e-01  8.34762914e-01  8.46017430e-01  8.89476624e-01  8.96400754e-01
  9.04450546e-01  9.23883607e-01  9.32305361e-01  9.37322976e-01  9.44567235e-01
  9.54308151e-01  9.66790471e-01  9.74632820e-01  1.00229280e+00  1.01365518e+00
  1.02350174e+00  1.03271701e+00  1.04299343e+00  1.05763160e+00  1.08529096e+00
  1.09094822e+00  1.10490524e+00  1.12875875e+00  1.14279101e+00  1.17096429e+00
  1.18290246e+00  1.20798246e+00  1.22357680e+00  1.24357411e+00  1.25345847e+00
  1.26620659e+00  1.28098391e+00  1.31960267e+00  1.32654221e+00  1.34112826e+00
  1.35406387e+00  1.37744022e+00  1.38781310e+00  1.40652755e+00  1.41364035e+00
  1.43862929e+00  1.43995149e+00  1.46207946e+00  1.46800203e+00  1.48518554e+00
  1.49313741e+00  1.50303535e+00  1.50615469e+00  1.52665195e+00  1.59718003e+00
  1.63704180e+00  1.64515788e+00  1.66728610e+00  1.72988240e+00  1.74850913e+00
  1.77085789e+00  1.80503185e+00  1.81581953e+00  1.82298492e+00  1.84459860e+00
  1.85663169e+00  1.88909985e+00  1.91332377e+00  1.95482413e+00  1.95849765e+00
  1.97197888e+00  1.98929037e+00  1.99992574e+00  2.02375384e+00  2.05445505e+00
  2.08358517e+00  2.10208609e+00  2.11905293e+00  2.13928773e+00  2.15156589e+00
  2.17399131e+00  2.19411781e+00  2.19902269e+00  2.23689692e+00  2.24600901e+00
  2.28518290e+00  2.29396404e+00  2.31757690e+00  2.33679743e+00  2.39879257e+00
  2.42735741e+00  2.48428743e+00  2.50930852e+00  2.53288938e+00  2.57487375e+00
  2.60040971e+00  2.62136024e+00  2.62635094e+00  2.63796484e+00  2.68179657e+00
  2.72828560e+00  2.74100720e+00  2.75421527e+00  2.77222899e+00  2.78756481e+00
  2.82529280e+00  2.88289572e+00  2.91834804e+00  2.95629917e+00  3.00286308e+00
  3.11693788e+00  3.15265403e+00  3.22442039e+00  3.28382005e+00  3.39761692e+00
  3.98805676e+00  4.23213340e+00  4.24467260e+00  4.26818999e+00  4.28554668e+00
  4.34116352e+00  4.38075632e+00  4.43028746e+00  4.51467384e+00  4.55000933e+00
  4.59134531e+00  4.72770332e+00  4.93937228e+00
Alpha MO coefficients                      R   N=       69169
 -5.72651738e-05  1.32014758e-05  8.96453968e-05  3.03612731e-04 -2.95464013e-04
  1.85306178e-03 -3.64159214e-04  6.14928146e-04  6.64128791e-04 -1.27432113e-04
  1.04052248e-04  9.91983388e-05  4.41441876e-05 -1.09244613e-04 -1.85283585e-04
 -4.69439000e-03 -4.30619282e-04 -8.80071434e-04  1.34347929e-03  1.80324124e-05
  1.53924119e-04  1.36798307e-06 -7.62501645e-07  1.02519732e-05 -1.07598834e-03
 -2.89270825e-04  5.60040138e-07  5.51142338e-04  4.09918751e-05  1.24185446e-05
 -8.29166757e-05 -8.71551589e-06  7.15127901e-05  2.72782135e-05 -1.02191128e-03
  2.00421630e-05  8.74108932e-05  4.55417259e-04  4.84693484e-07  9.00363992e-05
 -1.56545839e-05 -6.27359234e-06 -1.34765600e-05 -1.96526866e-05  2.71848636e-04
 -2.75740281e-04 -2.51922923e-04 -2.14956571e-05 -1.65755728e-05 -9.34866351e-05
  4.04712915e-05  5.72455349e-05 -8.14798124e-05 -9.76075411e-03 -6.27329796e-04
  6.65881268e-04  2.32910744e-03 -4.65788757e-05 -1.54209622e-04  6.14904517e-05
 -2.65728797e-04 -8.95078875e-05  2.66397296e-04  6.51694239e-05 -6.30122802e-04
 -1.34322782e-04 -3.08425926e-05  3.92864401e-04  6.96008276e-06 -1.43139630e-04
 -6.06139067e-05  2.11684649e-04  2.97003824e-02 -3.61321643e-03 -6.18664132e-03
 -7.02834416e-04  9.92517954e-01  2.52481171e-02 -4.54669165e-04  5.72196325e-05
  1.08469227e-03  1.57485478e-02  4.51213015e-04 -6.51402462e-05 -1.35329011e-03
 -8.71244760e-03 -8.99403439e-03 -8.92274282e-03  3.66645115e-05  1.33329040e-04
  3.21055796e-05 -1.28711074e-02  9.60949449e-04 -1.19658417e-03 -6.71017391e-05
  5.35882897e-06 -3.57451322e-05  9.40766085e-06 -1.96553351e-05 -2.25033087e-05
  4.03485157e-04  2.33168597e-05 -9.17988417e-05 -5.94740149e-05 -2.94781551e-05
  1.28798713e-06 -1.65437634e-05 -8.42431264e-06 -1.15843679e-05  3.21109479e-05
 -2.10145535e-04 -1.63112138e-05 -9.58863270e-06  3.45367870e-05  1.32741693e-05
  1.28599009e-04  4.97428241e-06 -1.52185679e-05  1.15572418e-05 -1.21241588e-04
  3.86536056e-06  3.91545708e-05 -1.17709388e-04  5.72608477e-05 -1.01100451e-04
  4.99557869e-06 -3.82015836e-06  2.78261602e-05  5.21426488e-05  2.16959806e-03
  7.06477931e-05  7.79122833e-04 -2.88102669e-04  6.24218551e-05  1.32476201e-05
  6.18077011e-05 -1.68502940e-04  1.00097618e-05  8.78595488e-05 -1.00863327e-05
 -4.68992865e-05  1.71912916e-05 -8.92178587e-05  5.56802475e-04  6.65484580e-04
  4.49921557e-04  1.40303538e-05 -1.60366023e-05  5.02194807e-07  1.39427147e-05
 -1.47775426e-05 -2.43875003e-05 -1.60772641e-02 -6.31526371e-03 -5.24776716e-03
 -7.28164919e-03  6.66231774e-05  2.13228727e-04  1.87846452e-06 -4.92996488e-05
  1.08268663e-05 -2.83538891e-05  3.02001672e-05  4.51981498e-04  4.56829471e-04
  4.27196909e-04  3.93235045e-04  5.50935594e-05  1.64591123e-05  3.49068305e-05
 -2.55179859e-05  2.67215707e-05 -7.99090424e-06 -2.59852363e-02  1.29191099e-03
 -2.90595818e-03 -1.14201244e-04 -2.20593287e-07  7.04433313e-06 -1.19910846e-06
  1.98119759e-05 -7.80454771e-06  2.95240756e-05 -7.03267718e-05 -4.01072261e-04
 -7.66430664e-05 -1.91522130e-05 -4.92124099e-06  9.48469058e-07  4.73126452e-06
 -1.01771186e-05  9.52402791e-07  1.50820135e-02  1.98490578e-03 -1.10873597e-03
  2.29911229e-03 -2.29961121e-06 -1.32756124e-05 -6.21244808e-06 -7.92471841e-06