Generated by Psi4
     FORCE                           RHF                       TESTBAS
Number of atoms                            I               36
Charge                                     I                0
Multiplicity                               I                1
Number of electrons                        I              122
Number of alpha electrons                  I               61
Number of beta electrons                   I               61
Number of basis functions                  I              361
Number of independent functions            I              361
Atomic numbers                             I   N=          36
           6           6           6           1           1           7
           6           6           6           6           6           1
           1           1           1           1           6           1
           6           1           1           1           6           1
           1           1           6           6           6           6
           6           1           1           1           1           1
Nuclear charges                            R   N=          36
  6.00000000e+00  6.00000000e+00  6.00000000e+00  1.00000000e+00  1.00000000e+00
  7.00000000e+00  6.00000000e+00  6.00000000e+00  6.00000000e+00  6.00000000e+00
  6.00000000e+00  1.00000000e+00  1.00000000e+00  1.00000000e+00  1.00000000e+00
  1.00000000e+00  6.00000000e+00  1.00000000e+00  6.00000000e+00  1.00000000e+00
  1.00000000e+00  1.00000000e+00  6.00000000e+00  1.00000000e+00  1.00000000e+00
  1.00000000e+00  6.00000000e+00  6.00000000e+00  6.00000000e+00  6.00000000e+00
  6.00000000e+00  1.00000000e+00  1.00000000e+00  1.00000000e+00  1.00000000e+00
  1.00000000e+00
Current cartesian coordinates              R   N=         108
  1.74841766e+00 -1.95561285e+00 -2.20072743e+00  3.74573554e-01 -3.12003694e+00
  2.64440189e-02 -1.95090687e+00 -1.56655508e+00  9.40058829e-01  1.67143028e+00
 -3.35808504e+00  1.62536725e+00 -2.58213461e-01 -5.00794883e+00 -5.33060068e-01
 -3.26726337e+00 -2.82599022e+00  3.05847012e+00  3.98125624e+00 -5.66607407e-01
 -1.87851698e+00  5.23383698e+00  4.93359534e-01 -3.94812191e+00  4.26818568e+00
  1.84539423e-01 -6.38632825e+00  2.04560487e+00 -1.19981261e+00 -6.73749785e+00
  8.06966255e-01 -2.26149114e+00 -4.66168832e+00  4.74190763e+00 -3.05566140e-01
  1.24635860e-02 -9.09765202e-01 -3.35625960e+00 -4.95785611e+00  6.96429636e+00
  1.56125347e+00 -3.65277637e+00  5.24210629e+00  1.00554754e+00 -7.99816068e+00
  1.28406526e+00 -1.46638500e+00 -8.62747286e+00 -1.14020651e+00  1.09325986e+00
  1.70224871e+00 -3.25272161e+00 -1.39700332e+00 -6.95505102e-01 -3.87100743e+00
 -5.48181604e+00  2.60245144e+00 -2.16232581e+00 -6.63389452e+00  2.48374761e+00
 -4.99851241e+00 -5.77761075e+00  8.59786459e-01 -4.98044818e+00 -6.18932254e+00
  4.19872378e+00 -5.57409134e+00 -1.46383295e+00  3.75033486e+00 -5.14191633e+00
  4.99370032e-01  4.21720368e+00 -6.41926869e+00 -2.35346618e+00  5.41659796e+00
 -6.99762361e+00 -1.47124521e+00  2.21258083e+00  1.95665855e-01  1.50117650e+00
  3.95626130e+00 -1.65181039e+00  3.16695488e+00  1.42334336e-01 -8.44444878e-01
  5.59546831e+00  8.03596136e-01  4.87308714e-01  5.98130868e+00  3.04898185e+00
  1.00164312e+00  3.92248374e+00  4.62678337e+00  5.63934184e-01 -9.03280581e-02
  5.20131430e+00  1.11286222e+00  7.86731404e+00  3.57143484e+00  2.02654148e+00
  4.20570639e+00  6.38559986e+00 -2.68580774e+00  2.88186848e+00 -1.61140174e+00
 -1.25973930e+00  7.18068222e+00 -4.35978244e-01
Integer atomic weights                     I   N=          36
          12          12          12           1           1          14
          12          12          12          12          12           1
           1           1           1           1          12           1
          12           1           1           1          12           1
           1           1          12          12          12          12
          12           1           1           1           1           1
Real atomic weights                        R   N=          36
  1.20000000e+01  1.20000000e+01  1.20000000e+01  1.00782503e+00  1.00782503e+00
  1.40030740e+01  1.20000000e+01  1.20000000e+01  1.20000000e+01  1.20000000e+01
  1.20000000e+01  1.00782503e+00  1.00782503e+00  1.00782503e+00  1.00782503e+00
  1.00782503e+00  1.20000000e+01  1.00782503e+00  1.20000000e+01  1.00782503e+00
  1.00782503e+00  1.00782503e+00  1.20000000e+01  1.00782503e+00  1.00782503e+00
  1.00782503e+00  1.20000000e+01  1.20000000e+01  1.20000000e+01  1.20000000e+01
  1.20000000e+01  1.00782503e+00  1.00782503e+00  1.00782503e+00  1.00782503e+00
  1.00782503e+00
Number of primitive shells                 I              365
Number of contracted shells                I              174
Pure/Cartesian d shells                    I                1
Pure/Cartesian f shells                    I                1
Highest angular momentum                   I                2
Largest degree of contraction              I                6
Shell types                                I   N=         174
           0           0           1           0           1           2
           0           1           0           0           1           0
           1           2           0           1           0           0
           1           0           1           2           0           1
           0           0           0           0           0           0
           1           0           1           2           0           1
           0           0           1           0           1           2
           0           1           0           0           1           0
           1           2           0           1           0           0
           1           0           1           2           0           1
           0           0           1           0           1           2
           0           1           0           0           1           0
           1           2           0           1           0           0
           0           0           0           0           0           0
           0           0           0           0           1           0
           1           2           0           1           0           0
           0           0           1           0           1           2
           0           1           0           0           0           0
           0           0           0           0           1           0
           1           2           0           1           0           0
           0           0           0           0           0           0
           1           0           1           2           0           1
           0           0           1           0           1           2
           0           1           0           0           1           0
           1           2           0           1           0           0
           1           0           1           2           0           1
           0           0           1           0           1           2
           0           1           0           0           0           0
           0           0           0           0           0           0
Number of primitives per shell             I   N=         174
           6           3           3           1           1           1
           1           1           6           3           3           1
           1           1           1           1           6           3
           3           1           1           1           1           1
           3           1           3           1           6           3
           3           1           1           1           1           1
           6           3           3           1           1           1
           1           1           6           3           3           1
           1           1           1           1           6           3
           3           1           1           1           1           1
           6           3           3           1           1           1
           1           1           6           3           3           1
           1           1           1           1           3           1
           3           1           3           1           3           1
           3           1           6           3           3           1
           1           1           1           1           3           1
           6           3           3           1           1           1
           1           1           3           1           3           1
           3           1           6           3           3           1
           1           1           1           1           3           1
           3           1           3           1           6           3
           3           1           1           1           1           1
           6           3           3           1           1           1
           1           1           6           3           3           1
           1           1           1           1           6           3
           3           1           1           1           1           1
           6           3           3           1           1           1
           1           1           3           1           3           1
           3           1           3           1           3           1
Shell to atom map                          I   N=         174
           1           1           1           1           1           1
           1           1           2           2           2           2
           2           2           2           2           3           3
           3           3           3           3           3           3
           4           4           5           5           6           6
           6           6           6           6           6           6
           7           7           7           7           7           7
           7           7           8           8           8           8
           8           8           8           8           9           9
           9           9           9           9           9           9
          10          10          10          10          10          10
          10          10          11          11          11          11
          11          11          11          11          12          12
          13          13          14          14          15          15
          16          16          17          17          17          17
          17          17          17          17          18          18
          19          19          19          19          19          19
          19          19          20          20          21          21
          22          22          23          23          23          23
          23          23          23          23          24          24
          25          25          26          26          27          27
          27          27          27          27          27          27
          28          28          28          28          28          28
          28          28          29          29          29          29
          29          29          29          29          30          30
          30          30          30          30          30          30
          31          31          31          31          31          31
          31          31          32          32          33          33
          34          34          35          35          36          36
Primitive exponents                        R   N=         365
  3.04752490e+03  4.57369510e+02  1.03948690e+02  2.92101550e+01  9.28666300e+00
  3.16392700e+00  7.86827240e+00  1.88128850e+00  5.44249300e-01  7.86827240e+00
  1.88128850e+00  5.44249300e-01  1.68714400e-01  1.68714400e-01  8.00000000e-01
  4.38000000e-02  4.38000000e-02  3.04752490e+03  4.57369510e+02  1.03948690e+02
  2.92101550e+01  9.28666300e+00  3.16392700e+00  7.86827240e+00  1.88128850e+00
  5.44249300e-01  7.86827240e+00  1.88128850e+00  5.44249300e-01  1.68714400e-01
  1.68714400e-01  8.00000000e-01  4.38000000e-02  4.38000000e-02  3.04752490e+03
  4.57369510e+02  1.03948690e+02  2.92101550e+01  9.28666300e+00  3.16392700e+00
  7.86827240e+00  1.88128850e+00  5.44249300e-01  7.86827240e+00  1.88128850e+00
  5.44249300e-01  1.68714400e-01  1.68714400e-01  8.00000000e-01  4.38000000e-02
  4.38000000e-02  1.87311370e+01  2.82539370e+00  6.40121700e-01  1.61277800e-01
  1.87311370e+01  2.82539370e+00  6.40121700e-01  1.61277800e-01  4.17351100e+03
  6.27457900e+02  1.42902100e+02  4.02343300e+01  1.28202100e+01  4.39043700e+00
  1.16263580e+01  2.71628000e+00  7.72218000e-01  1.16263580e+01  2.71628000e+00
  7.72218000e-01  2.12031300e-01  2.12031300e-01  8.00000000e-01  6.39000000e-02
  6.39000000e-02  3.04752490e+03  4.57369510e+02  1.03948690e+02  2.92101550e+01
  9.28666300e+00  3.16392700e+00  7.86827240e+00  1.88128850e+00  5.44249300e-01
  7.86827240e+00  1.88128850e+00  5.44249300e-01  1.68714400e-01  1.68714400e-01
  8.00000000e-01  4.38000000e-02  4.38000000e-02  3.04752490e+03  4.57369510e+02
  1.03948690e+02  2.92101550e+01  9.28666300e+00  3.16392700e+00  7.86827240e+00
  1.88128850e+00  5.44249300e-01  7.86827240e+00  1.88128850e+00  5.44249300e-01
  1.68714400e-01  1.68714400e-01  8.00000000e-01  4.38000000e-02  4.38000000e-02
  3.04752490e+03  4.57369510e+02  1.03948690e+02  2.92101550e+01  9.28666300e+00
  3.16392700e+00  7.86827240e+00  1.88128850e+00  5.44249300e-01  7.86827240e+00
  1.88128850e+00  5.44249300e-01  1.68714400e-01  1.68714400e-01  8.00000000e-01
  4.38000000e-02  4.38000000e-02  3.04752490e+03  4.57369510e+02  1.03948690e+02
  2.92101550e+01  9.28666300e+00  3.16392700e+00  7.86827240e+00  1.88128850e+00
  5.44249300e-01  7.86827240e+00  1.88128850e+00  5.44249300e-01  1.68714400e-01
  1.68714400e-01  8.00000000e-01  4.38000000e-02  4.38000000e-02  3.04752490e+03
  4.57369510e+02  1.03948690e+02  2.92101550e+01  9.28666300e+00  3.16392700e+00
  7.86827240e+00  1.88128850e+00  5.44249300e-01  7.86827240e+00  1.88128850e+00
  5.44249300e-01  1.68714400e-01  1.68714400e-01  8.00000000e-01  4.38000000e-02
  4.38000000e-02  1.87311370e+01  2.82539370e+00  6.40121700e-01  1.61277800e-01
  1.87311370e+01  2.82539370e+00  6.40121700e-01  1.61277800e-01  1.87311370e+01
  2.82539370e+00  6.40121700e-01  1.61277800e-01  1.87311370e+01  2.82539370e+00
  6.40121700e-01  1.61277800e-01  1.87311370e+01  2.82539370e+00  6.40121700e-01
  1.61277800e-01  3.04752490e+03  4.57369510e+02  1.03948690e+02  2.92101550e+01
  9.28666300e+00  3.16392700e+00  7.86827240e+00  1.88128850e+00  5.44249300e-01
  7.86827240e+00  1.88128850e+00  5.44249300e-01  1.68714400e-01  1.68714400e-01
  8.00000000e-01  4.38000000e-02  4.38000000e-02  1.87311370e+01  2.82539370e+00
  6.40121700e-01  1.61277800e-01  3.04752490e+03  4.57369510e+02  1.03948690e+02
  2.92101550e+01  9.28666300e+00  3.16392700e+00  7.86827240e+00  1.88128850e+00
  5.44249300e-01  7.86827240e+00  1.88128850e+00  5.44249300e-01  1.68714400e-01
  1.68714400e-01  8.00000000e-01  4.38000000e-02  4.38000000e-02  1.87311370e+01
  2.82539370e+00  6.40121700e-01  1.61277800e-01  1.87311370e+01  2.82539370e+00
  6.40121700e-01  1.61277800e-01  1.87311370e+01  2.82539370e+00  6.40121700e-01
  1.61277800e-01  3.04752490e+03  4.57369510e+02  1.03948690e+02  2.92101550e+01
  9.28666300e+00  3.16392700e+00  7.86827240e+00  1.88128850e+00  5.44249300e-01
  7.86827240e+00  1.88128850e+00  5.44249300e-01  1.68714400e-01  1.68714400e-01
  8.00000000e-01  4.38000000e-02  4.38000000e-02  1.87311370e+01  2.82539370e+00
  6.40121700e-01  1.61277800e-01  1.87311370e+01  2.82539370e+00  6.40121700e-01
  1.61277800e-01  1.87311370e+01  2.82539370e+00  6.40121700e-01  1.61277800e-01
  3.04752490e+03  4.57369510e+02  1.03948690e+02  2.92101550e+01  9.28666300e+00
  3.16392700e+00  7.86827240e+00  1.88128850e+00  5.44249300e-01  7.86827240e+00
  1.88128850e+00  5.44249300e-01  1.68714400e-01  1.68714400e-01  8.00000000e-01
  4.38000000e-02  4.38000000e-02  3.04752490e+03  4.57369510e+02  1.03948690e+02
  2.92101550e+01  9.28666300e+00  3.16392700e+00  7.86827240e+00  1.88128850e+00
  5.44249300e-01  7.86827240e+00  1.88128850e+00  5.44249300e-01  1.68714400e-01
  1.68714400e-01  8.00000000e-01  4.38000000e-02  4.38000000e-02  3.04752490e+03
  4.57369510e+02  1.03948690e+02  2.92101550e+01  9.28666300e+00  3.16392700e+00
  7.86827240e+00  1.88128850e+00  5.44249300e-01  7.86827240e+00  1.88128850e+00
  5.44249300e-01  1.68714400e-01  1.68714400e-01  8.00000000e-01  4.38000000e-02
  4.38000000e-02  3.04752490e+03  4.57369510e+02  1.03948690e+02  2.92101550e+01
  9.28666300e+00  3.16392700e+00  7.86827240e+00  1.88128850e+00  5.44249300e-01
  7.86827240e+00  1.88128850e+00  5.44249300e-01  1.68714400e-01  1.68714400e-01
  8.00000000e-01  4.38000000e-02  4.38000000e-02  3.04752490e+03  4.57369510e+02
  1.03948690e+02  2.92101550e+01  9.28666300e+00  3.16392700e+00  7.86827240e+00
  1.88128850e+00  5.44249300e-01  7.86827240e+00  1.88128850e+00  5.44249300e-01
  1.68714400e-01  1.68714400e-01  8.00000000e-01  4.38000000e-02  4.38000000e-02
  1.87311370e+01  2.82539370e+00  6.40121700e-01  1.61277800e-01  1.87311370e+01
  2.82539370e+00  6.40121700e-01  1.61277800e-01  1.87311370e+01  2.82539370e+00
  6.40121700e-01  1.61277800e-01  1.87311370e+01  2.82539370e+00  6.40121700e-01
  1.61277800e-01  1.87311370e+01  2.82539370e+00  6.40121700e-01  1.61277800e-01
Contraction coefficients                   R   N=         365
  1.83470016e-03  1.40373012e-02  6.88426061e-02  2.32184421e-01  4.67941342e-01
  3.62312032e-01 -1.19332409e-01 -1.60854212e-01  1.14345648e+00  6.89990956e-02
  3.16423980e-01  7.44308252e-01  1.00000000e+00  1.00000000e+00  1.00000000e+00
  1.00000000e+00  1.00000000e+00  1.83470016e-03  1.40373012e-02  6.88426061e-02
  2.32184421e-01  4.67941342e-01  3.62312032e-01 -1.19332409e-01 -1.60854212e-01
  1.14345648e+00  6.89990956e-02  3.16423980e-01  7.44308252e-01  1.00000000e+00
  1.00000000e+00  1.00000000e+00  1.00000000e+00  1.00000000e+00  1.83470016e-03
  1.40373012e-02  6.88426061e-02  2.32184421e-01  4.67941342e-01  3.62312032e-01
 -1.19332409e-01 -1.60854212e-01  1.14345648e+00  6.89990956e-02  3.16423980e-01
  7.44308252e-01  1.00000000e+00  1.00000000e+00  1.00000000e+00  1.00000000e+00
  1.00000000e+00  3.34945995e-02  2.34726947e-01  8.13757318e-01  1.00000000e+00
  3.34945995e-02  2.34726947e-01  8.13757318e-01  1.00000000e+00  1.83479944e-03
  1.39949958e-02  6.85869792e-02  2.32240930e-01  4.69069858e-01  3.60454891e-01
 -1.14961023e-01 -1.69118034e-01  1.14585223e+00  6.75800232e-02  3.23907111e-01
  7.40895255e-01  1.00000000e+00  1.00000000e+00  1.00000000e+00  1.00000000e+00
  1.00000000e+00  1.83470016e-03  1.40373012e-02  6.88426061e-02  2.32184421e-01
  4.67941342e-01  3.62312032e-01 -1.19332409e-01 -1.60854212e-01  1.14345648e+00
  6.89990956e-02  3.16423980e-01  7.44308252e-01  1.00000000e+00  1.00000000e+00
  1.00000000e+00  1.00000000e+00  1.00000000e+00  1.83470016e-03  1.40373012e-02
  6.88426061e-02  2.32184421e-01  4.67941342e-01  3.62312032e-01 -1.19332409e-01
 -1.60854212e-01  1.14345648e+00  6.89990956e-02  3.16423980e-01  7.44308252e-01
  1.00000000e+00  1.00000000e+00  1.00000000e+00  1.00000000e+00  1.00000000e+00
  1.83470016e-03  1.40373012e-02  6.88426061e-02  2.32184421e-01  4.67941342e-01
  3.62312032e-01 -1.19332409e-01 -1.60854212e-01  1.14345648e+00  6.89990956e-02
  3.16423980e-01  7.44308252e-01  1.00000000e+00  1.00000000e+00  1.00000000e+00
  1.00000000e+00  1.00000000e+00  1.83470016e-03  1.40373012e-02  6.88426061e-02
  2.32184421e-01  4.67941342e-01  3.62312032e-01 -1.19332409e-01 -1.60854212e-01
  1.14345648e+00  6.89990956e-02  3.16423980e-01  7.44308252e-01  1.00000000e+00
  1.00000000e+00  1.00000000e+00  1.00000000e+00  1.00000000e+00  1.83470016e-03
  1.40373012e-02  6.88426061e-02  2.32184421e-01  4.67941342e-01  3.62312032e-01
 -1.19332409e-01 -1.60854212e-01  1.14345648e+00  6.89990956e-02  3.16423980e-01
  7.44308252e-01  1.00000000e+00  1.00000000e+00  1.00000000e+00  1.00000000e+00
  1.00000000e+00  3.34945995e-02  2.34726947e-01  8.13757318e-01  1.00000000e+00
  3.34945995e-02  2.34726947e-01  8.13757318e-01  1.00000000e+00  3.34945995e-02
  2.34726947e-01  8.13757318e-01  1.00000000e+00  3.34945995e-02  2.34726947e-01
  8.13757318e-01  1.00000000e+00  3.34945995e-02  2.34726947e-01  8.13757318e-01
  1.00000000e+00  1.83470016e-03  1.40373012e-02  6.88426061e-02  2.32184421e-01
  4.67941342e-01  3.62312032e-01 -1.19332409e-01 -1.60854212e-01  1.14345648e+00
  6.89990956e-02  3.16423980e-01  7.44308252e-01  1.00000000e+00  1.00000000e+00
  1.00000000e+00  1.00000000e+00  1.00000000e+00  3.34945995e-02  2.34726947e-01
  8.13757318e-01  1.00000000e+00  1.83470016e-03  1.40373012e-02  6.88426061e-02
  2.32184421e-01  4.67941342e-01  3.62312032e-01 -1.19332409e-01 -1.60854212e-01
  1.14345648e+00  6.89990956e-02  3.16423980e-01  7.44308252e-01  1.00000000e+00
  1.00000000e+00  1.00000000e+00  1.00000000e+00  1.00000000e+00  3.34945995e-02
  2.34726947e-01  8.13757318e-01  1.00000000e+00  3.34945995e-02  2.34726947e-01
  8.13757318e-01  1.00000000e+00  3.34945995e-02  2.34726947e-01  8.13757318e-01
  1.00000000e+00  1.83470016e-03  1.40373012e-02  6.88426061e-02  2.32184421e-01
  4.67941342e-01  3.62312032e-01 -1.19332409e-01 -1.60854212e-01  1.14345648e+00
  6.89990956e-02  3.16423980e-01  7.44308252e-01  1.00000000e+00  1.00000000e+00
  1.00000000e+00  1.00000000e+00  1.00000000e+00  3.34945995e-02  2.34726947e-01
  8.13757318e-01  1.00000000e+00  3.34945995e-02  2.34726947e-01  8.13757318e-01
  1.00000000e+00  3.34945995e-02  2.34726947e-01  8.13757318e-01  1.00000000e+00
  1.83470016e-03  1.40373012e-02  6.88426061e-02  2.32184421e-01  4.67941342e-01
  3.62312032e-01 -1.19332409e-01 -1.60854212e-01  1.14345648e+00  6.89990956e-02
  3.16423980e-01  7.44308252e-01  1.00000000e+00  1.00000000e+00  1.00000000e+00
  1.00000000e+00  1.00000000e+00  1.83470016e-03  1.40373012e-02  6.88426061e-02
  2.32184421e-01  4.67941342e-01  3.62312032e-01 -1.19332409e-01 -1.60854212e-01
  1.14345648e+00  6.89990956e-02  3.16423980e-01  7.44308252e-01  1.00000000e+00
  1.00000000e+00  1.00000000e+00  1.00000000e+00  1.00000000e+00  1.83470016e-03
  1.40373012e-02  6.88426061e-02  2.32184421e-01  4.67941342e-01  3.62312032e-01
 -1.19332409e-01 -1.60854212e-01  1.14345648e+00  6.89990956e-02  3.16423980e-01
  7.44308252e-01  1.00000000e+00  1.00000000e+00  1.00000000e+00  1.00000000e+00
  1.00000000e+00  1.83470016e-03  1.40373012e-02  6.88426061e-02  2.32184421e-01
  4.67941342e-01  3.62312032e-01 -1.19332409e-01 -1.60854212e-01  1.14345648e+00
  6.89990956e-02  3.16423980e-01  7.44308252e-01  1.00000000e+00  1.00000000e+00
  1.00000000e+00  1.00000000e+00  1.00000000e+00  1.83470016e-03  1.40373012e-02
  6.88426061e-02  2.32184421e-01  4.67941342e-01  3.62312032e-01 -1.19332409e-01
 -1.60854212e-01  1.14345648e+00  6.89990956e-02  3.16423980e-01  7.44308252e-01
  1.00000000e+00  1.00000000e+00  1.00000000e+00  1.00000000e+00  1.00000000e+00
  3.34945995e-02  2.34726947e-01  8.13757318e-01  1.00000000e+00  3.34945995e-02
  2.34726947e-01  8.13757318e-01  1.00000000e+00  3.34945995e-02  2.34726947e-01
  8.13757318e-01  1.00000000e+00  3.34945995e-02  2.34726947e-01  8.13757318e-01
  1.00000000e+00  3.34945995e-02  2.34726947e-01  8.13757318e-01  1.00000000e+00
Coordinates of each shell                  R   N=         522
  1.74841766e+00 -1.95561285e+00 -2.20072743e+00  1.74841766e+00 -1.95561285e+00
 -2.20072743e+00  1.74841766e+00 -1.95561285e+00 -2.20072743e+00  1.74841766e+00
 -1.95561285e+00 -2.20072743e+00  1.74841766e+00 -1.95561285e+00 -2.20072743e+00
  1.74841766e+00 -1.95561285e+00 -2.20072743e+00  1.74841766e+00 -1.95561285e+00
 -2.20072743e+00  1.74841766e+00 -1.95561285e+00 -2.20072743e+00  3.74573554e-01
 -3.12003694e+00  2.64440189e-02  3.74573554e-01 -3.12003694e+00  2.64440189e-02
  3.74573554e-01 -3.12003694e+00  2.64440189e-02  3.74573554e-01 -3.12003694e+00
  2.64440189e-02  3.74573554e-01 -3.12003694e+00  2.64440189e-02  3.74573554e-01
 -3.12003694e+00  2.64440189e-02  3.74573554e-01 -3.12003694e+00  2.64440189e-02
  3.74573554e-01 -3.12003694e+00  2.64440189e-02 -1.95090687e+00 -1.56655508e+00
  9.40058829e-01 -1.95090687e+00 -1.56655508e+00  9.40058829e-01 -1.95090687e+00
 -1.56655508e+00  9.40058829e-01 -1.95090687e+00 -1.56655508e+00  9.40058829e-01
 -1.95090687e+00 -1.56655508e+00  9.40058829e-01 -1.95090687e+00 -1.56655508e+00
  9.40058829e-01 -1.95090687e+00 -1.56655508e+00  9.40058829e-01 -1.95090687e+00
 -1.56655508e+00  9.40058829e-01  1.67143028e+00 -3.35808504e+00  1.62536725e+00
  1.67143028e+00 -3.35808504e+00  1.62536725e+00 -2.58213461e-01 -5.00794883e+00
 -5.33060068e-01 -2.58213461e-01 -5.00794883e+00 -5.33060068e-01 -3.26726337e+00
 -2.82599022e+00  3.05847012e+00 -3.26726337e+00 -2.82599022e+00  3.05847012e+00
 -3.26726337e+00 -2.82599022e+00  3.05847012e+00 -3.26726337e+00 -2.82599022e+00
  3.05847012e+00 -3.26726337e+00 -2.82599022e+00  3.05847012e+00 -3.26726337e+00
 -2.82599022e+00  3.05847012e+00 -3.26726337e+00 -2.82599022e+00  3.05847012e+00
 -3.26726337e+00 -2.82599022e+00  3.05847012e+00  3.98125624e+00 -5.66607407e-01
 -1.87851698e+00  3.98125624e+00 -5.66607407e-01 -1.87851698e+00  3.98125624e+00
 -5.66607407e-01 -1.87851698e+00  3.98125624e+00 -5.66607407e-01 -1.87851698e+00
  3.98125624e+00 -5.66607407e-01 -1.87851698e+00  3.98125624e+00 -5.66607407e-01
 -1.87851698e+00  3.98125624e+00 -5.66607407e-01 -1.87851698e+00  3.98125624e+00
 -5.66607407e-01 -1.87851698e+00  5.23383698e+00  4.93359534e-01 -3.94812191e+00
  5.23383698e+00  4.93359534e-01 -3.94812191e+00  5.23383698e+00  4.93359534e-01
 -3.94812191e+00  5.23383698e+00  4.93359534e-01 -3.94812191e+00  5.23383698e+00
  4.93359534e-01 -3.94812191e+00  5.23383698e+00  4.93359534e-01 -3.94812191e+00
  5.23383698e+00  4.93359534e-01 -3.94812191e+00  5.23383698e+00  4.93359534e-01
 -3.94812191e+00  4.26818568e+00  1.84539423e-01 -6.38632825e+00  4.26818568e+00
  1.84539423e-01 -6.38632825e+00  4.26818568e+00  1.84539423e-01 -6.38632825e+00
  4.26818568e+00  1.84539423e-01 -6.38632825e+00  4.26818568e+00  1.84539423e-01
 -6.38632825e+00  4.26818568e+00  1.84539423e-01 -6.38632825e+00  4.26818568e+00
  1.84539423e-01 -6.38632825e+00  4.26818568e+00  1.84539423e-01 -6.38632825e+00
  2.04560487e+00 -1.19981261e+00 -6.73749785e+00  2.04560487e+00 -1.19981261e+00
 -6.73749785e+00  2.04560487e+00 -1.19981261e+00 -6.73749785e+00  2.04560487e+00
 -1.19981261e+00 -6.73749785e+00  2.04560487e+00 -1.19981261e+00 -6.73749785e+00
  2.04560487e+00 -1.19981261e+00 -6.73749785e+00  2.04560487e+00 -1.19981261e+00
 -6.73749785e+00  2.04560487e+00 -1.19981261e+00 -6.73749785e+00  8.06966255e-01
 -2.26149114e+00 -4.66168832e+00  8.06966255e-01 -2.26149114e+00 -4.66168832e+00
  8.06966255e-01 -2.26149114e+00 -4.66168832e+00  8.06966255e-01 -2.26149114e+00
 -4.66168832e+00  8.06966255e-01 -2.26149114e+00 -4.66168832e+00  8.06966255e-01
 -2.26149114e+00 -4.66168832e+00  8.06966255e-01 -2.26149114e+00 -4.66168832e+00
  8.06966255e-01 -2.26149114e+00 -4.66168832e+00  4.74190763e+00 -3.05566140e-01
  1.24635860e-02  4.74190763e+00 -3.05566140e-01  1.24635860e-02 -9.09765202e-01
 -3.35625960e+00 -4.95785611e+00 -9.09765202e-01 -3.35625960e+00 -4.95785611e+00
  6.96429636e+00  1.56125347e+00 -3.65277637e+00  6.96429636e+00  1.56125347e+00
 -3.65277637e+00  5.24210629e+00  1.00554754e+00 -7.99816068e+00  5.24210629e+00
  1.00554754e+00 -7.99816068e+00  1.28406526e+00 -1.46638500e+00 -8.62747286e+00
  1.28406526e+00 -1.46638500e+00 -8.62747286e+00 -1.14020651e+00  1.09325986e+00
  1.70224871e+00 -1.14020651e+00  1.09325986e+00  1.70224871e+00 -1.14020651e+00
  1.09325986e+00  1.70224871e+00 -1.14020651e+00  1.09325986e+00  1.70224871e+00
 -1.14020651e+00  1.09325986e+00  1.70224871e+00 -1.14020651e+00  1.09325986e+00
  1.70224871e+00 -1.14020651e+00  1.09325986e+00  1.70224871e+00 -1.14020651e+00
  1.09325986e+00  1.70224871e+00 -3.25272161e+00 -1.39700332e+00 -6.95505102e-01
 -3.25272161e+00 -1.39700332e+00 -6.95505102e-01 -3.87100743e+00 -5.48181604e+00
  2.60245144e+00 -3.87100743e+00 -5.48181604e+00  2.60245144e+00 -3.87100743e+00
 -5.48181604e+00  2.60245144e+00 -3.87100743e+00 -5.48181604e+00  2.60245144e+00
 -3.87100743e+00 -5.48181604e+00  2.60245144e+00 -3.87100743e+00 -5.48181604e+00
  2.60245144e+00 -3.87100743e+00 -5.48181604e+00  2.60245144e+00 -3.87100743e+00
 -5.48181604e+00  2.60245144e+00 -2.16232581e+00 -6.63389452e+00  2.48374761e+00
 -2.16232581e+00 -6.63389452e+00  2.48374761e+00 -4.99851241e+00 -5.77761075e+00
  8.59786459e-01 -4.99851241e+00 -5.77761075e+00  8.59786459e-01 -4.98044818e+00
 -6.18932254e+00  4.19872378e+00 -4.98044818e+00 -6.18932254e+00  4.19872378e+00
 -5.57409134e+00 -1.46383295e+00  3.75033486e+00 -5.57409134e+00 -1.46383295e+00
  3.75033486e+00 -5.57409134e+00 -1.46383295e+00  3.75033486e+00 -5.57409134e+00
 -1.46383295e+00  3.75033486e+00 -5.57409134e+00 -1.46383295e+00  3.75033486e+00
 -5.57409134e+00 -1.46383295e+00  3.75033486e+00 -5.57409134e+00 -1.46383295e+00
  3.75033486e+00 -5.57409134e+00 -1.46383295e+00  3.75033486e+00 -5.14191633e+00
  4.99370032e-01  4.21720368e+00 -5.14191633e+00  4.99370032e-01  4.21720368e+00
 -6.41926869e+00 -2.35346618e+00  5.41659796e+00 -6.41926869e+00 -2.35346618e+00
  5.41659796e+00 -6.99762361e+00 -1.47124521e+00  2.21258083e+00 -6.99762361e+00
 -1.47124521e+00  2.21258083e+00  1.95665855e-01  1.50117650e+00  3.95626130e+00
  1.95665855e-01  1.50117650e+00  3.95626130e+00  1.95665855e-01  1.50117650e+00
  3.95626130e+00  1.95665855e-01  1.50117650e+00  3.95626130e+00  1.95665855e-01
  1.50117650e+00  3.95626130e+00  1.95665855e-01  1.50117650e+00  3.95626130e+00