Generated by Psi4
     FORCE                           RHF                       TESTBAS
Number of atoms                            I               20
Charge                                     I                0
Multiplicity                               I                1
Number of electrons                        I               72
Number of alpha electrons                  I               36
Number of beta electrons                   I               36
Number of basis functions                  I              210
Number of independent functions            I              210
Atomic numbers                             I   N=          20
           6           6           6           6           1           1
           8           6           6           6           6           6
           1           1           1           1           1           1
           1           1
Nuclear charges                            R   N=          20
  6.00000000e+00  6.00000000e+00  6.00000000e+00  6.00000000e+00  1.00000000e+00
  1.00000000e+00  8.00000000e+00  6.00000000e+00  6.00000000e+00  6.00000000e+00
  6.00000000e+00  6.00000000e+00  1.00000000e+00  1.00000000e+00  1.00000000e+00
  1.00000000e+00  1.00000000e+00  1.00000000e+00  1.00000000e+00  1.00000000e+00
Current cartesian coordinates              R   N=          60
 -5.90014162e-01 -1.47155992e-01  9.26042960e-01  2.96191456e-01  2.55315467e+00
  1.14827637e+00  1.92480851e+00  3.51593199e+00 -1.04684804e+00  2.83687845e+00
  6.23951483e+00 -8.48246600e-01  1.40243296e+00  2.83522099e+00  2.88663800e+00
 -1.31573506e+00  3.85628960e+00  1.31756619e+00  2.47732894e+00  2.21307192e+00
 -2.85647419e+00 -2.88364854e+00 -7.24579857e-01 -2.64611939e-01 -3.69479378e+00
 -3.22558309e+00 -4.99035912e-01 -2.21648310e+00 -5.19234775e+00  4.60799620e-01
  7.44680238e-02 -4.63905474e+00  1.65270777e+00  8.76022418e-01 -2.13455193e+00
  1.88165505e+00  2.66461846e+00 -1.72110742e+00  2.80873220e+00 -4.04460650e+00
  7.95017752e-01 -1.02123789e+00 -5.48006907e+00 -3.63649049e+00 -1.42897093e+00
 -2.84559919e+00 -7.13980229e+00  2.83582249e-01  1.23770512e+00 -6.15574382e+00
  2.40596230e+00  2.19457448e+00  7.18718211e+00  8.74110491e-01  2.16686879e+00
  7.29833452e+00 -2.49730295e+00  4.90705122e+00  6.26427642e+00 -9.05849612e-01
Integer atomic weights                     I   N=          20
          12          12          12          12           1           1
          15          12          12          12          12          12
           1           1           1           1           1           1
           1           1
Real atomic weights                        R   N=          20
  1.20000000e+01  1.20000000e+01  1.20000000e+01  1.20000000e+01  1.00782503e+00
  1.00782503e+00  1.59949146e+01  1.20000000e+01  1.20000000e+01  1.20000000e+01
  1.20000000e+01  1.20000000e+01  1.00782503e+00  1.00782503e+00  1.00782503e+00
  1.00782503e+00  1.00782503e+00  1.00782503e+00  1.00782503e+00  1.00782503e+00
Number of primitive shells                 I              210
Number of contracted shells                I              100
Pure/Cartesian d shells                    I                1
Pure/Cartesian f shells                    I                1
Highest angular momentum                   I                2
Largest degree of contraction              I                6
Shell types                                I   N=         100
           0           0           1           0           1           2
           0           1           0           0           1           0
           1           2           0           1           0           0
           1           0           1           2           0           1
           0           0           1           0           1           2
           0           1           0           0           0           0
           0           0           1           0           1           2
           0           1           0           0           1           0
           1           2           0           1           0           0
           1           0           1           2           0           1
           0           0           1           0           1           2
           0           1           0           0           1           0
           1           2           0           1           0           0
           1           0           1           2           0           1
           0           0           0           0           0           0
           0           0           0           0           0           0
           0           0           0           0
Number of primitives per shell             I   N=         100
           6           3           3           1           1           1
           1           1           6           3           3           1
           1           1           1           1           6           3
           3           1           1           1           1           1
           6           3           3           1           1           1
           1           1           3           1           3           1
           6           3           3           1           1           1
           1           1           6           3           3           1
           1           1           1           1           6           3
           3           1           1           1           1           1
           6           3           3           1           1           1
           1           1           6           3           3           1
           1           1           1           1           6           3
           3           1           1           1           1           1
           3           1           3           1           3           1
           3           1           3           1           3           1
           3           1           3           1
Shell to atom map                          I   N=         100
           1           1           1           1           1           1
           1           1           2           2           2           2
           2           2           2           2           3           3
           3           3           3           3           3           3
           4           4           4           4           4           4
           4           4           5           5           6           6
           7           7           7           7           7           7
           7           7           8           8           8           8
           8           8           8           8           9           9
           9           9           9           9           9           9
          10          10          10          10          10          10
          10          10          11          11          11          11
          11          11          11          11          12          12
          12          12          12          12          12          12
          13          13          14          14          15          15
          16          16          17          17          18          18
          19          19          20          20
Primitive exponents                        R   N=         210
  3.04752490e+03  4.57369510e+02  1.03948690e+02  2.92101550e+01  9.28666300e+00
  3.16392700e+00  7.86827240e+00  1.88128850e+00  5.44249300e-01  7.86827240e+00
  1.88128850e+00  5.44249300e-01  1.68714400e-01  1.68714400e-01  8.00000000e-01
  4.38000000e-02  4.38000000e-02  3.04752490e+03  4.57369510e+02  1.03948690e+02
  2.92101550e+01  9.28666300e+00  3.16392700e+00  7.86827240e+00  1.88128850e+00
  5.44249300e-01  7.86827240e+00  1.88128850e+00  5.44249300e-01  1.68714400e-01
  1.68714400e-01  8.00000000e-01  4.38000000e-02  4.38000000e-02  3.04752490e+03
  4.57369510e+02  1.03948690e+02  2.92101550e+01  9.28666300e+00  3.16392700e+00
  7.86827240e+00  1.88128850e+00  5.44249300e-01  7.86827240e+00  1.88128850e+00
  5.44249300e-01  1.68714400e-01  1.68714400e-01  8.00000000e-01  4.38000000e-02
  4.38000000e-02  3.04752490e+03  4.57369510e+02  1.03948690e+02  2.92101550e+01
  9.28666300e+00  3.16392700e+00  7.86827240e+00  1.88128850e+00  5.44249300e-01
  7.86827240e+00  1.88128850e+00  5.44249300e-01  1.68714400e-01  1.68714400e-01
  8.00000000e-01  4.38000000e-02  4.38000000e-02  1.87311370e+01  2.82539370e+00
  6.40121700e-01  1.61277800e-01  1.87311370e+01  2.82539370e+00  6.40121700e-01
  1.61277800e-01  5.48467170e+03  8.25234950e+02  1.88046960e+02  5.29645000e+01
  1.68975700e+01  5.79963530e+00  1.55396160e+01  3.59993360e+00  1.01376180e+00
  1.55396160e+01  3.59993360e+00  1.01376180e+00  2.70005800e-01  2.70005800e-01
  8.00000000e-01  8.45000000e-02  8.45000000e-02  3.04752490e+03  4.57369510e+02
  1.03948690e+02  2.92101550e+01  9.28666300e+00  3.16392700e+00  7.86827240e+00
  1.88128850e+00  5.44249300e-01  7.86827240e+00  1.88128850e+00  5.44249300e-01
  1.68714400e-01  1.68714400e-01  8.00000000e-01  4.38000000e-02  4.38000000e-02
  3.04752490e+03  4.57369510e+02  1.03948690e+02  2.92101550e+01  9.28666300e+00
  3.16392700e+00  7.86827240e+00  1.88128850e+00  5.44249300e-01  7.86827240e+00
  1.88128850e+00  5.44249300e-01  1.68714400e-01  1.68714400e-01  8.00000000e-01
  4.38000000e-02  4.38000000e-02  3.04752490e+03  4.57369510e+02  1.03948690e+02
  2.92101550e+01  9.28666300e+00  3.16392700e+00  7.86827240e+00  1.88128850e+00
  5.44249300e-01  7.86827240e+00  1.88128850e+00  5.44249300e-01  1.68714400e-01
  1.68714400e-01  8.00000000e-01  4.38000000e-02  4.38000000e-02  3.04752490e+03
  4.57369510e+02  1.03948690e+02  2.92101550e+01  9.28666300e+00  3.16392700e+00
  7.86827240e+00  1.88128850e+00  5.44249300e-01  7.86827240e+00  1.88128850e+00
  5.44249300e-01  1.68714400e-01  1.68714400e-01  8.00000000e-01  4.38000000e-02
  4.38000000e-02  3.04752490e+03  4.57369510e+02  1.03948690e+02  2.92101550e+01
  9.28666300e+00  3.16392700e+00  7.86827240e+00  1.88128850e+00  5.44249300e-01
  7.86827240e+00  1.88128850e+00  5.44249300e-01  1.68714400e-01  1.68714400e-01
  8.00000000e-01  4.38000000e-02  4.38000000e-02  1.87311370e+01  2.82539370e+00
  6.40121700e-01  1.61277800e-01  1.87311370e+01  2.82539370e+00  6.40121700e-01
  1.61277800e-01  1.87311370e+01  2.82539370e+00  6.40121700e-01  1.61277800e-01
  1.87311370e+01  2.82539370e+00  6.40121700e-01  1.61277800e-01  1.87311370e+01
  2.82539370e+00  6.40121700e-01  1.61277800e-01  1.87311370e+01  2.82539370e+00
  6.40121700e-01  1.61277800e-01  1.87311370e+01  2.82539370e+00  6.40121700e-01
  1.61277800e-01  1.87311370e+01  2.82539370e+00  6.40121700e-01  1.61277800e-01
Contraction coefficients                   R   N=         210
  1.83470016e-03  1.40373012e-02  6.88426061e-02  2.32184421e-01  4.67941342e-01
  3.62312032e-01 -1.19332409e-01 -1.60854212e-01  1.14345648e+00  6.89990956e-02
  3.16423980e-01  7.44308252e-01  1.00000000e+00  1.00000000e+00  1.00000000e+00
  1.00000000e+00  1.00000000e+00  1.83470016e-03  1.40373012e-02  6.88426061e-02
  2.32184421e-01  4.67941342e-01  3.62312032e-01 -1.19332409e-01 -1.60854212e-01
  1.14345648e+00  6.89990956e-02  3.16423980e-01  7.44308252e-01  1.00000000e+00
  1.00000000e+00  1.00000000e+00  1.00000000e+00  1.00000000e+00  1.83470016e-03
  1.40373012e-02  6.88426061e-02  2.32184421e-01  4.67941342e-01  3.62312032e-01
 -1.19332409e-01 -1.60854212e-01  1.14345648e+00  6.89990956e-02  3.16423980e-01
  7.44308252e-01  1.00000000e+00  1.00000000e+00  1.00000000e+00  1.00000000e+00
  1.00000000e+00  1.83470016e-03  1.40373012e-02  6.88426061e-02  2.32184421e-01
  4.67941342e-01  3.62312032e-01 -1.19332409e-01 -1.60854212e-01  1.14345648e+00
  6.89990956e-02  3.16423980e-01  7.44308252e-01  1.00000000e+00  1.00000000e+00
  1.00000000e+00  1.00000000e+00  1.00000000e+00  3.34945995e-02  2.34726947e-01
  8.13757318e-01  1.00000000e+00  3.34945995e-02  2.34726947e-01  8.13757318e-01
  1.00000000e+00  1.83109981e-03  1.39500985e-02  6.84450927e-02  2.32714275e-01
  4.70192950e-01  3.58520862e-01 -1.10777504e-01 -1.48026305e-01  1.13076704e+00
  7.08742995e-02  3.39752798e-01  7.27158595e-01  1.00000000e+00  1.00000000e+00
  1.00000000e+00  1.00000000e+00  1.00000000e+00  1.83470016e-03  1.40373012e-02
  6.88426061e-02  2.32184421e-01  4.67941342e-01  3.62312032e-01 -1.19332409e-01
 -1.60854212e-01  1.14345648e+00  6.89990956e-02  3.16423980e-01  7.44308252e-01
  1.00000000e+00  1.00000000e+00  1.00000000e+00  1.00000000e+00  1.00000000e+00
  1.83470016e-03  1.40373012e-02  6.88426061e-02  2.32184421e-01  4.67941342e-01
  3.62312032e-01 -1.19332409e-01 -1.60854212e-01  1.14345648e+00  6.89990956e-02
  3.16423980e-01  7.44308252e-01  1.00000000e+00  1.00000000e+00  1.00000000e+00
  1.00000000e+00  1.00000000e+00  1.83470016e-03  1.40373012e-02  6.88426061e-02
  2.32184421e-01  4.67941342e-01  3.62312032e-01 -1.19332409e-01 -1.60854212e-01
  1.14345648e+00  6.89990956e-02  3.16423980e-01  7.44308252e-01  1.00000000e+00
  1.00000000e+00  1.00000000e+00  1.00000000e+00  1.00000000e+00  1.83470016e-03
  1.40373012e-02  6.88426061e-02  2.32184421e-01  4.67941342e-01  3.62312032e-01
 -1.19332409e-01 -1.60854212e-01  1.14345648e+00  6.89990956e-02  3.16423980e-01
  7.44308252e-01  1.00000000e+00  1.00000000e+00  1.00000000e+00  1.00000000e+00
  1.00000000e+00  1.83470016e-03  1.40373012e-02  6.88426061e-02  2.32184421e-01
  4.67941342e-01  3.62312032e-01 -1.19332409e-01 -1.60854212e-01  1.14345648e+00
  6.89990956e-02  3.16423980e-01  7.44308252e-01  1.00000000e+00  1.00000000e+00
  1.00000000e+00  1.00000000e+00  1.00000000e+00  3.34945995e-02  2.34726947e-01
  8.13757318e-01  1.00000000e+00  3.34945995e-02  2.34726947e-01  8.13757318e-01
  1.00000000e+00  3.34945995e-02  2.34726947e-01  8.13757318e-01  1.00000000e+00
  3.34945995e-02  2.34726947e-01  8.13757318e-01  1.00000000e+00  3.34945995e-02
  2.34726947e-01  8.13757318e-01  1.00000000e+00  3.34945995e-02  2.34726947e-01
  8.13757318e-01  1.00000000e+00  3.34945995e-02  2.34726947e-01  8.13757318e-01
  1.00000000e+00  3.34945995e-02  2.34726947e-01  8.13757318e-01  1.00000000e+00
Coordinates of each shell                  R   N=         300
 -5.90014162e-01 -1.47155992e-01  9.26042960e-01 -5.90014162e-01 -1.47155992e-01
  9.26042960e-01 -5.90014162e-01 -1.47155992e-01  9.26042960e-01 -5.90014162e-01
 -1.47155992e-01  9.26042960e-01 -5.90014162e-01 -1.47155992e-01  9.26042960e-01
 -5.90014162e-01 -1.47155992e-01  9.26042960e-01 -5.90014162e-01 -1.47155992e-01
  9.26042960e-01 -5.90014162e-01 -1.47155992e-01  9.26042960e-01  2.96191456e-01
  2.55315467e+00  1.14827637e+00  2.96191456e-01  2.55315467e+00  1.14827637e+00
  2.96191456e-01  2.55315467e+00  1.14827637e+00  2.96191456e-01  2.55315467e+00
  1.14827637e+00  2.96191456e-01  2.55315467e+00  1.14827637e+00  2.96191456e-01
  2.55315467e+00  1.14827637e+00  2.96191456e-01  2.55315467e+00  1.14827637e+00
  2.96191456e-01  2.55315467e+00  1.14827637e+00  1.92480851e+00  3.51593199e+00
 -1.04684804e+00  1.92480851e+00  3.51593199e+00 -1.04684804e+00  1.92480851e+00
  3.51593199e+00 -1.04684804e+00  1.92480851e+00  3.51593199e+00 -1.04684804e+00
  1.92480851e+00  3.51593199e+00 -1.04684804e+00  1.92480851e+00  3.51593199e+00
 -1.04684804e+00  1.92480851e+00  3.51593199e+00 -1.04684804e+00  1.92480851e+00
  3.51593199e+00 -1.04684804e+00  2.83687845e+00  6.23951483e+00 -8.48246600e-01
  2.83687845e+00  6.23951483e+00 -8.48246600e-01  2.83687845e+00  6.23951483e+00
 -8.48246600e-01  2.83687845e+00  6.23951483e+00 -8.48246600e-01  2.83687845e+00
  6.23951483e+00 -8.48246600e-01  2.83687845e+00  6.23951483e+00 -8.48246600e-01
  2.83687845e+00  6.23951483e+00 -8.48246600e-01  2.83687845e+00  6.23951483e+00
 -8.48246600e-01  1.40243296e+00  2.83522099e+00  2.88663800e+00  1.40243296e+00
  2.83522099e+00  2.88663800e+00 -1.31573506e+00  3.85628960e+00  1.31756619e+00
 -1.31573506e+00  3.85628960e+00  1.31756619e+00  2.47732894e+00  2.21307192e+00
 -2.85647419e+00  2.47732894e+00  2.21307192e+00 -2.85647419e+00  2.47732894e+00
  2.21307192e+00 -2.85647419e+00  2.47732894e+00  2.21307192e+00 -2.85647419e+00
  2.47732894e+00  2.21307192e+00 -2.85647419e+00  2.47732894e+00  2.21307192e+00
 -2.85647419e+00  2.47732894e+00  2.21307192e+00 -2.85647419e+00  2.47732894e+00
  2.21307192e+00 -2.85647419e+00 -2.88364854e+00 -7.24579857e-01 -2.64611939e-01
 -2.88364854e+00 -7.24579857e-01 -2.64611939e-01 -2.88364854e+00 -7.24579857e-01
 -2.64611939e-01 -2.88364854e+00 -7.24579857e-01 -2.64611939e-01 -2.88364854e+00
 -7.24579857e-01 -2.64611939e-01 -2.88364854e+00 -7.24579857e-01 -2.64611939e-01
 -2.88364854e+00 -7.24579857e-01 -2.64611939e-01 -2.88364854e+00 -7.24579857e-01
 -2.64611939e-01 -3.69479378e+00 -3.22558309e+00 -4.99035912e-01 -3.69479378e+00
 -3.22558309e+00 -4.99035912e-01 -3.69479378e+00 -3.22558309e+00 -4.99035912e-01
 -3.69479378e+00 -3.22558309e+00 -4.99035912e-01 -3.69479378e+00 -3.22558309e+00
 -4.99035912e-01 -3.69479378e+00 -3.22558309e+00 -4.99035912e-01 -3.69479378e+00
 -3.22558309e+00 -4.99035912e-01 -3.69479378e+00 -3.22558309e+00 -4.99035912e-01
 -2.21648310e+00 -5.19234775e+00  4.60799620e-01 -2.21648310e+00 -5.19234775e+00
  4.60799620e-01 -2.21648310e+00 -5.19234775e+00  4.60799620e-01 -2.21648310e+00
 -5.19234775e+00  4.60799620e-01 -2.21648310e+00 -5.19234775e+00  4.60799620e-01
 -2.21648310e+00 -5.19234775e+00  4.60799620e-01 -2.21648310e+00 -5.19234775e+00
  4.60799620e-01 -2.21648310e+00 -5.19234775e+00  4.60799620e-01  7.44680238e-02
 -4.63905474e+00  1.65270777e+00  7.44680238e-02 -4.63905474e+00  1.65270777e+00
  7.44680238e-02 -4.63905474e+00  1.65270777e+00  7.44680238e-02 -4.63905474e+00
  1.65270777e+00  7.44680238e-02 -4.63905474e+00  1.65270777e+00  7.44680238e-02
 -4.63905474e+00  1.65270777e+00  7.44680238e-02 -4.63905474e+00  1.65270777e+00
  7.44680238e-02 -4.63905474e+00  1.65270777e+00  8.76022418e-01 -2.13455193e+00
  1.88165505e+00  8.76022418e-01 -2.13455193e+00  1.88165505e+00  8.76022418e-01
 -2.13455193e+00  1.88165505e+00  8.76022418e-01 -2.13455193e+00  1.88165505e+00
  8.76022418e-01 -2.13455193e+00  1.88165505e+00  8.76022418e-01 -2.13455193e+00
  1.88165505e+00  8.76022418e-01 -2.13455193e+00  1.88165505e+00  8.76022418e-01
 -2.13455193e+00  1.88165505e+00  2.66461846e+00 -1.72110742e+00  2.80873220e+00
  2.66461846e+00 -1.72110742e+00  2.80873220e+00 -4.04460650e+00  7.95017752e-01
 -1.02123789e+00 -4.04460650e+00  7.95017752e-01 -1.02123789e+00 -5.48006907e+00
 -3.63649049e+00 -1.42897093e+00 -5.48006907e+00 -3.63649049e+00 -1.42897093e+00
 -2.84559919e+00 -7.13980229e+00  2.83582249e-01 -2.84559919e+00 -7.13980229e+00
  2.83582249e-01  1.23770512e+00 -6.15574382e+00  2.40596230e+00  1.23770512e+00
 -6.15574382e+00  2.40596230e+00  2.19457448e+00  7.18718211e+00  8.74110491e-01
  2.19457448e+00  7.18718211e+00  8.74110491e-01  2.16686879e+00  7.29833452e+00
 -2.49730295e+00  2.16686879e+00  7.29833452e+00 -2.49730295e+00  4.90705122e+00
  6.26427642e+00 -9.05849612e-01  4.90705122e+00  6.26427642e+00 -9.05849612e-01
Total Energy                               R     -4.242210156797732e+02
Alpha Orbital Energies                     R   N=         210
 -1.91526225e+01 -1.02903852e+01 -1.02115085e+01 -1.02059270e+01 -1.02009062e+01
 -1.01965348e+01 -1.01964213e+01 -1.01956710e+01 -1.01956245e+01 -1.01952446e+01
 -1.05131160e+00 -8.61754323e-01 -7.95592131e-01 -7.54339250e-01 -7.49052966e-01
 -7.02104846e-01 -6.10700087e-01 -5.98726819e-01 -5.42841433e-01 -5.12355288e-01
 -4.79770179e-01 -4.72646536e-01 -4.67698626e-01 -4.47311161e-01 -4.42842994e-01
 -4.25002622e-01 -4.10452565e-01 -4.03596282e-01 -4.01295489e-01 -3.62346852e-01
 -3.57646679e-01 -3.47930771e-01 -3.45066690e-01 -2.63500040e-01 -2.55233459e-01
 -2.46674398e-01 -2.93923864e-02 -1.70303724e-02 -1.12704542e-02 -4.18359005e-03
  9.97285181e-03  2.18524453e-02  2.86668277e-02  3.84042864e-02  4.09164748e-02
  4.98586445e-02  5.89011582e-02  6.41955752e-02  6.54019111e-02  6.89132688e-02
  7.82789329e-02  8.54543544e-02  9.58822859e-02  9.85090080e-02  1.12178019e-01
  1.15770419e-01  1.21118438e-01  1.26994483e-01  1.42162255e-01  1.43634078e-01
  1.54130011e-01  1.63420009e-01  1.64416529e-01  1.71001281e-01  1.76634775e-01
  1.78577857e-01  1.84621267e-01  1.85819115e-01  2.04717445e-01  2.06814192e-01
  2.11022054e-01  2.12200485e-01  2.18089368e-01  2.20679435e-01  2.28724933e-01
  2.33596303e-01  2.41642445e-01  2.46256364e-01  2.54223608e-01  2.60503288e-01
  2.61025925e-01  2.69231149e-01  2.82729810e-01  2.88680224e-01  3.01325128e-01
  3.09788071e-01  3.10293202e-01  3.28304805e-01  3.30200428e-01  3.47411485e-01
  3.50396257e-01  3.60031510e-01  3.71109648e-01  3.71875962e-01  3.79191378e-01
  4.08221067e-01  4.35347715e-01  5.06176469e-01  5.60462701e-01  6.04123461e-01
  6.47311473e-01  6.57635227e-01  6.72680973e-01  6.75214163e-01  6.82706384e-01
  6.96219780e-01  7.20070907e-01  7.20510469e-01  7.28707799e-01  7.34606362e-01
  7.42782128e-01  7.48617578e-01  7.53393194e-01  7.64621336e-01  7.67788830e-01
  8.00583059e-01  8.04998702e-01  8.27257555e-01  8.46370974e-01  8.61190617e-01
  8.92361294e-01  9.08708340e-01  9.33650666e-01  9.52800620e-01  9.56988267e-01
  9.63017157e-01  9.70444874e-01  1.00284767e+00  1.00844785e+00  1.03374564e+00
  1.03647388e+00  1.08842896e+00  1.09028127e+00  1.10021800e+00  1.12111672e+00
  1.14757267e+00  1.16435214e+00  1.16813198e+00  1.20324232e+00  1.21269476e+00
  1.25401558e+00  1.26676689e+00  1.30125803e+00  1.35941823e+00  1.37179177e+00
  1.40128010e+00  1.43247200e+00  1.43753415e+00  1.45552904e+00  1.46997039e+00
  1.48035119e+00  1.49463486e+00  1.50954513e+00  1.54925657e+00  1.57944159e+00
  1.63581216e+00  1.69912417e+00  1.74161849e+00  1.81387183e+00  1.82378022e+00
  1.83273328e+00  1.84066889e+00  1.88576370e+00  1.91669497e+00  1.92913445e+00
  1.93690241e+00  1.96293079e+00  1.96938638e+00  1.99729543e+00  2.04649590e+00
  2.08899042e+00  2.11081380e+00  2.14747059e+00  2.16097721e+00  2.18047518e+00
  2.20919394e+00  2.22411497e+00  2.26116264e+00  2.26960986e+00  2.29015136e+00
  2.30561672e+00  2.30925706e+00  2.36886741e+00  2.38848926e+00  2.44591582e+00
  2.57495134e+00  2.59313441e+00  2.60352162e+00  2.61623577e+00  2.65297923e+00
  2.68738397e+00  2.74176500e+00  2.75566408e+00  2.76713645e+00  2.78250576e+00
  2.92604646e+00  3.01450050e+00  3.05449122e+00  3.13704836e+00  3.40379478e+00
  4.17875065e+00  4.24278326e+00  4.24392143e+00  4.29062177e+00  4.31865439e+00
  4.37999251e+00  4.38416413e+00  4.46894292e+00  4.61580154e+00  4.72477341e+00
Alpha MO coefficients                      R   N=       44100
  1.66196218e-05  3.22816439e-05  2.61269724e-05  3.31492191e-05 -2.30437425e-05
 -7.71722127e-04 -2.83719053e-05 -1.53766848e-04 -6.71520321e-05  5.46819539e-05
  1.63288039e-05  5.50202502e-05  7.85101109e-06 -2.08011777e-05 -3.22060361e-05
  1.45038452e-02  1.14444954e-03 -3.82114411e-04 -2.21270482e-03  8.70722278e-06
  6.90918352e-05  1.76447849e-06 -1.31174520e-05 -1.14609454e-05 -2.25087061e-04
 -1.40371441e-04 -2.37581241e-04  9.18346531e-05  8.22828361e-06  3.09978977e-05
 -2.88252680e-05  1.77463620e-05  2.12537300e-05 -1.76492238e-05 -3.80515610e-03
 -2.19803557e-04  8.56286978e-04  9.39580730e-04 -1.03703963e-05  3.94013666e-04
  6.19824873e-05 -1.55618556e-04 -2.08770763e-04  1.54735360e-04 -2.20975252e-04
  6.78170220e-04  8.23862386e-04 -1.77769413e-04 -2.54687035e-04 -3.53512180e-04
  6.17107567e-05  5.82203184e-05 -1.71782173e-04  1.69131187e-03 -1.57974010e-03
 -5.79705419e-03 -1.03526424e-03  6.54949124e-06  9.52260851e-05 -1.09514566e-06
  2.60650196e-05  1.90296934e-05 -4.48062459e-04  1.16666766e-04  2.54514454e-05
 -1.85151902e-04  8.11157002e-06 -4.44914805e-05 -2.53575883e-05  6.07382838e-06
  3.24209036e-06 -4.99812518e-05  5.71386154e-03 -4.21239382e-04 -9.60234615e-04
  9.80240355e-05  9.52646344e-06 -2.06520437e-04  9.40341842e-06 -2.04026824e-04
  9.92543729e-01  2.50891543e-02 -2.87579530e-04  7.71236641e-04  1.00275755e-03
  1.63742854e-02 -1.02515243e-05 -3.96529075e-04 -2.41039207e-04 -8.71819383e-03
 -8.68395531e-03 -8.65672237e-03 -1.10559088e-05 -2.77900676e-05  5.27157417e-05
 -8.98339429e-03  6.16826791e-04  9.48153394e-04 -4.49188530e-04 -6.55120629e-06
 -1.97356952e-05 -1.18794718e-05 -8.34093860e-06  1.10543198e-05  2.06518878e-04
  3.88208245e-05 -9.50030128e-05  1.74364524e-05 -1.32630612e-05 -9.66523001e-06
 -1.80940794e-05  4.23434094e-06  7.21797362e-07 -5.66036557e-06 -2.04073373e-03
 -3.07984561e-03 -2.27214958e-03  5.58995898e-04  7.04953704e-06  3.17408430e-05
  2.01173288e-05  6.27972260e-06 -5.73759371e-06 -3.66311106e-04 -2.98134769e-04
 -2.65176865e-05 -8.77649667e-05  1.29381389e-06  9.62854691e-07  2.14018169e-05
  1.31249579e-06  6.32267462e-07  5.92545862e-06 -5.66228066e-03  3.29410756e-05
 -1.31146481e-03 -8.43767868e-04 -7.90574381e-06 -4.05624241e-05  4.80451048e-06
  8.86889289e-06 -2.85802969e-06  5.76178648e-04  9.10962430e-05  2.40577866e-04
  2.02227348e-07 -6.46920356e-06 -1.64007528e-07 -9.83937925e-06  8.92523604e-07
  3.98446212e-06  1.95486765e-06  1.48723530e-03 -1.38301063e-04  6.01889343e-04
  6.39820646e-04  7.15218196e-06  3.21165877e-05  6.11903907e-07  1.38093118e-05
 -1.69904635e-05 -3.66874370e-04  1.62287709e-04 -1.98384190e-04  1.76251787e-04
  9.36796192e-06  6.42705007e-06  8.35779287e-06 -8.77079972e-06 -1.00702610e-05
  6.34457377e-06 -5.80009240e-03 -2.83165422e-05 -1.31812733e-03 -8.72661682e-04
 -6.60653845e-06 -2.05659419e-05 -9.16256538e-06 -9.54001825e-06  1.28881528e-05
  2.15076111e-04 -7.40387923e-05 -4.39792893e-05 -5.01784877e-05 -1.21676964e-05
 -9.96888402e-06 -1.80586066e-05  5.17258712e-06  9.51750600e-07 -5.45410582e-06
 -1.94673046e-03 -5.00741212e-04 -3.29409257e-03  2.03091035e-03 -1.92593200e-05
 -4.97761430e-06 -1.86669859e-05  1.27483087e-06 -2.70740618e-05 -1.71347881e-06
 -4.97451078e-08  4.73088126e-05 -2.71524984e-05  5.08484731e-07  3.48907671e-05
  1.59479926e-04 -1.22442817e-06  1.67905608e-04 -1.12730751e-06  1.66966233e-04
 -2.83396593e-05 -5.69071362e-05 -3.04156473e-05 -1.16529624e-04 -2.30757894e-05
  6.60837591e-04 -1.12490711e-04  4.43712378e-04  4.93280984e-04 -3.73936499e-05
 -4.30464546e-06 -1.64136346e-05 -1.66535768e-05  9.39023416e-06  4.59621208e-05
  2.60238038e-03 -4.01211926e-03 -1.49985479e-02 -1.70505142e-03  1.25773566e-03
 -5.50486651e-05 -5.82203390e-05  2.92340455e-05  1.18188535e-04  3.68962278e-03
  1.55476777e-03  1.51626246e-03 -1.69405860e-03 -1.86138939e-04 -1.61673842e-04
 -2.93919676e-04 -7.46713419e-05  1.69096986e-04  6.66807982e-05  5.18665557e-02
 -1.52334123e-03 -1.10783270e-02 -4.63718205e-03  9.93168096e-01  4.98474787e-02
  1.89671390e-04 -5.55479033e-04 -6.91153066e-04 -1.84942251e-02  1.31711755e-03
 -3.82346816e-04 -2.54061823e-03 -8.89272041e-03 -8.59773450e-03 -8.36543241e-03
 -1.15600567e-04 -2.18894190e-04  4.77862864e-04 -2.87681647e-02 -2.22422226e-03
 -1.05552398e-02 -3.01217158e-03  1.16376877e-03 -6.29506432e-05  6.24872062e-05
  1.13598038e-04 -3.32114828e-05  3.81693812e-03 -9.04153989e-04 -1.11788255e-03
  8.32844752e-04 -1.10795907e-04 -4.59237878e-04 -9.55051139e-05 -1.16171842e-04
 -2.39276117e-05 -8.14266687e-05  2.31784219e-02 -1.97757605e-03 -4.47865652e-03
  4.90272639e-04 -5.25843290e-05 -1.20733087e-03 -5.45922619e-05 -1.18428298e-03
 -1.13445342e-04  4.68705128e-04  3.25624594e-06 -6.03864353e-06 -9.60146984e-06
 -2.25019156e-03  2.87011787e-04 -9.71800056e-04 -1.13236600e-03  4.15843181e-04
  1.49908959e-04  5.25471836e-05  4.42965530e-05  1.63034054e-04 -3.28021534e-04
  2.83023130e-03 -4.14044636e-04  2.52136933e-03  2.36493422e-03  2.04119624e-05
  4.46959439e-05  7.06516373e-05  6.59524734e-05 -8.91525003e-06  3.20077441e-04
 -5.27633779e-04 -1.05959984e-03 -6.30917223e-05  1.38455224e-05  6.10423620e-05
  2.22751744e-05 -8.75489691e-06 -1.69206962e-05  2.43574838e-05 -8.33691412e-03
 -9.92653952e-03 -6.77441237e-03 -1.90822137e-03  5.08121492e-06  4.46682404e-05
 -3.49413589e-05 -2.33401421e-05  1.61146880e-05 -9.91175559e-04 -5.16461150e-05
 -4.59172332e-04 -1.54784816e-04  8.24474721e-06 -3.41998301e-05 -5.16044156e-07
 -4.28934449e-06 -1.57842384e-05 -9.50219706e-06 -4.43734978e-03  3.04070816e-03
 -5.87527691e-03  8.20654056e-05 -2.68398382e-06 -1.20196024e-05 -8.03308955e-06
 -1.24380499e-05  6.25104974e-06 -5.71892308e-06  7.59553118e-05  2.88216107e-04
  5.42732130e-05  4.14364187e-06 -1.85765074e-06  5.73198240e-07 -3.85035364e-06
  4.40677238e-06 -2.97298163e-07 -2.01526853e-02 -1.39244286e-03 -1.87655646e-03
  9.18842473e-04  5.26003913e-06  4.53486205e-05 -1.19098501e-05 -3.22886123e-05
  2.89984826e-05 -1.00255587e-03 -9.84311396e-05 -4.48382635e-04 -1.79971946e-04
 -7.90251067e-06 -3.13154565e-05  1.30155156e-05 -5.53025126e-06 -7.77168893e-06
 -1.70736457e-05 -4.63989424e-03 -4.41278088e-03 -3.38222822e-03 -4.13996944e-03
  2.06425283e-05  4.60952966e-05  1.48606010e-05  8.76241987e-05 -4.01883057e-05
  3.18125897e-04 -3.01603370e-04 -1.16163030e-03  6.74933227e-05  8.98659861e-06
  4.46489380e-05  4.36867904e-05  1.75770391e-05  2.90243603e-06  3.09492095e-05
 -9.27537024e-03  1.75752451e-03 -1.17340925e-02  4.79839756e-03  6.72657330e-05
  2.44088627e-04  6.56396517e-05  2.51628099e-04  2.43607032e-05 -2.21473667e-05
  8.69708270e-06  2.49889091e-04  2.44193064e-05 -2.15049230e-05 -1.18893002e-04
 -1.08108768e-03 -8.59886509e-05 -1.68070812e-04 -8.61564924e-05 -1.67287326e-04
  2.26901907e-02  1.09199992e-03 -3.14037927e-05 -1.70547667e-04 -5.58358241e-05
  3.09165215e-03  1.76559145e-03  5.28567230e-03  3.46819046e-04 -2.55243637e-04
 -4.41978969e-04 -2.84626725e-04 -4.81353261e-05  5.61733587e-06 -6.98050098e-05
  9.78167397e-02  2.65830265e-03  5.54816014e-03 -1.26889389e-03  9.92911652e-01
  5.13079592e-02  7.42629733e-07  1.54653319e-06 -2.08992003e-07 -2.71722852e-02
 -4.92091553e-04  1.75410552e-03  2.00439558e-03 -8.72864222e-03 -8.86844667e-03