Generated by Psi4
     FORCE                           RHF                       TESTBAS
Number of atoms                            I               13
Charge                                     I                0
Multiplicity                               I                1
Number of electrons                        I               54
Number of alpha electrons                  I               27
Number of beta electrons                   I               27
Number of basis functions                  I              145
Number of independent functions            I              145
Atomic numbers                             I   N=          13
           6           6           8           6           8           6
           1           1           1           8           1           1
           1
Nuclear charges                            R   N=          13
  6.00000000e+00  6.00000000e+00  8.00000000e+00  6.00000000e+00  8.00000000e+00
  6.00000000e+00  1.00000000e+00  1.00000000e+00  1.00000000e+00  8.00000000e+00
  1.00000000e+00  1.00000000e+00  1.00000000e+00
Current cartesian coordinates              R   N=          39
 -4.37391389e+00 -1.71527347e+00  6.33599985e-01 -1.72738935e+00 -1.47704593e+00
 -3.76858179e-01 -7.93445920e-01  9.50667495e-01  8.60821240e-02  1.79540489e+00
  1.39557135e+00  3.69750768e-01  3.22342985e+00 -1.46387835e-01  1.22249493e+00
  2.42357563e+00  4.05191351e+00 -4.24583416e-01  1.13998631e+00  5.39906755e+00
  4.79968938e-01  2.17012050e+00  4.23478400e+00 -2.47271496e+00  4.37750195e+00
  4.47899050e+00  7.53440307e-02 -5.53378920e-01 -3.05260250e+00 -1.50979542e+00
 -4.32769263e+00 -1.64984799e+00  2.70387765e+00 -5.19275556e+00 -3.50230800e+00
  1.21380098e-02 -5.53774957e+00 -1.30039766e-01 -9.22989568e-03
Integer atomic weights                     I   N=          13
          12          12          15          12          15          12
           1           1           1          15           1           1
           1
Real atomic weights                        R   N=          13
  1.20000000e+01  1.20000000e+01  1.59949146e+01  1.20000000e+01  1.59949146e+01
  1.20000000e+01  1.00782503e+00  1.00782503e+00  1.00782503e+00  1.59949146e+01
  1.00782503e+00  1.00782503e+00  1.00782503e+00
Number of primitive shells                 I              143
Number of contracted shells                I               68
Pure/Cartesian d shells                    I                1
Pure/Cartesian f shells                    I                1
Highest angular momentum                   I                2
Largest degree of contraction              I                6
Shell types                                I   N=          68
           0           0           1           0           1           2
           0           1           0           0           1           0
           1           2           0           1           0           0
           1           0           1           2           0           1
           0           0           1           0           1           2
           0           1           0           0           1           0
           1           2           0           1           0           0
           1           0           1           2           0           1
           0           0           0           0           0           0
           0           0           1           0           1           2
           0           1           0           0           0           0
           0           0
Number of primitives per shell             I   N=          68
           6           3           3           1           1           1
           1           1           6           3           3           1
           1           1           1           1           6           3
           3           1           1           1           1           1
           6           3           3           1           1           1
           1           1           6           3           3           1
           1           1           1           1           6           3
           3           1           1           1           1           1
           3           1           3           1           3           1
           6           3           3           1           1           1
           1           1           3           1           3           1
           3           1
Shell to atom map                          I   N=          68
           1           1           1           1           1           1
           1           1           2           2           2           2
           2           2           2           2           3           3
           3           3           3           3           3           3
           4           4           4           4           4           4
           4           4           5           5           5           5
           5           5           5           5           6           6
           6           6           6           6           6           6
           7           7           8           8           9           9
          10          10          10          10          10          10
          10          10          11          11          12          12
          13          13
Primitive exponents                        R   N=         143
  3.04752490e+03  4.57369510e+02  1.03948690e+02  2.92101550e+01  9.28666300e+00
  3.16392700e+00  7.86827240e+00  1.88128850e+00  5.44249300e-01  7.86827240e+00
  1.88128850e+00  5.44249300e-01  1.68714400e-01  1.68714400e-01  8.00000000e-01
  4.38000000e-02  4.38000000e-02  3.04752490e+03  4.57369510e+02  1.03948690e+02
  2.92101550e+01  9.28666300e+00  3.16392700e+00  7.86827240e+00  1.88128850e+00
  5.44249300e-01  7.86827240e+00  1.88128850e+00  5.44249300e-01  1.68714400e-01
  1.68714400e-01  8.00000000e-01  4.38000000e-02  4.38000000e-02  5.48467170e+03
  8.25234950e+02  1.88046960e+02  5.29645000e+01  1.68975700e+01  5.79963530e+00
  1.55396160e+01  3.59993360e+00  1.01376180e+00  1.55396160e+01  3.59993360e+00
  1.01376180e+00  2.70005800e-01  2.70005800e-01  8.00000000e-01  8.45000000e-02
  8.45000000e-02  3.04752490e+03  4.57369510e+02  1.03948690e+02  2.92101550e+01
  9.28666300e+00  3.16392700e+00  7.86827240e+00  1.88128850e+00  5.44249300e-01
  7.86827240e+00  1.88128850e+00  5.44249300e-01  1.68714400e-01  1.68714400e-01
  8.00000000e-01  4.38000000e-02  4.38000000e-02  5.48467170e+03  8.25234950e+02
  1.88046960e+02  5.29645000e+01  1.68975700e+01  5.79963530e+00  1.55396160e+01
  3.59993360e+00  1.01376180e+00  1.55396160e+01  3.59993360e+00  1.01376180e+00
  2.70005800e-01  2.70005800e-01  8.00000000e-01  8.45000000e-02  8.45000000e-02
  3.04752490e+03  4.57369510e+02  1.03948690e+02  2.92101550e+01  9.28666300e+00
  3.16392700e+00  7.86827240e+00  1.88128850e+00  5.44249300e-01  7.86827240e+00
  1.88128850e+00  5.44249300e-01  1.68714400e-01  1.68714400e-01  8.00000000e-01
  4.38000000e-02  4.38000000e-02  1.87311370e+01  2.82539370e+00  6.40121700e-01
  1.61277800e-01  1.87311370e+01  2.82539370e+00  6.40121700e-01  1.61277800e-01
  1.87311370e+01  2.82539370e+00  6.40121700e-01  1.61277800e-01  5.48467170e+03
  8.25234950e+02  1.88046960e+02  5.29645000e+01  1.68975700e+01  5.79963530e+00
  1.55396160e+01  3.59993360e+00  1.01376180e+00  1.55396160e+01  3.59993360e+00
  1.01376180e+00  2.70005800e-01  2.70005800e-01  8.00000000e-01  8.45000000e-02
  8.45000000e-02  1.87311370e+01  2.82539370e+00  6.40121700e-01  1.61277800e-01
  1.87311370e+01  2.82539370e+00  6.40121700e-01  1.61277800e-01  1.87311370e+01
  2.82539370e+00  6.40121700e-01  1.61277800e-01
Contraction coefficients                   R   N=         143
  1.83470016e-03  1.40373012e-02  6.88426061e-02  2.32184421e-01  4.67941342e-01
  3.62312032e-01 -1.19332409e-01 -1.60854212e-01  1.14345648e+00  6.89990956e-02
  3.16423980e-01  7.44308252e-01  1.00000000e+00  1.00000000e+00  1.00000000e+00
  1.00000000e+00  1.00000000e+00  1.83470016e-03  1.40373012e-02  6.88426061e-02
  2.32184421e-01  4.67941342e-01  3.62312032e-01 -1.19332409e-01 -1.60854212e-01
  1.14345648e+00  6.89990956e-02  3.16423980e-01  7.44308252e-01  1.00000000e+00
  1.00000000e+00  1.00000000e+00  1.00000000e+00  1.00000000e+00  1.83109981e-03
  1.39500985e-02  6.84450927e-02  2.32714275e-01  4.70192950e-01  3.58520862e-01
 -1.10777504e-01 -1.48026305e-01  1.13076704e+00  7.08742995e-02  3.39752798e-01
  7.27158595e-01  1.00000000e+00  1.00000000e+00  1.00000000e+00  1.00000000e+00
  1.00000000e+00  1.83470016e-03  1.40373012e-02  6.88426061e-02  2.32184421e-01
  4.67941342e-01  3.62312032e-01 -1.19332409e-01 -1.60854212e-01  1.14345648e+00
  6.89990956e-02  3.16423980e-01  7.44308252e-01  1.00000000e+00  1.00000000e+00
  1.00000000e+00  1.00000000e+00  1.00000000e+00  1.83109981e-03  1.39500985e-02
  6.84450927e-02  2.32714275e-01  4.70192950e-01  3.58520862e-01 -1.10777504e-01
 -1.48026305e-01  1.13076704e+00  7.08742995e-02  3.39752798e-01  7.27158595e-01
  1.00000000e+00  1.00000000e+00  1.00000000e+00  1.00000000e+00  1.00000000e+00
  1.83470016e-03  1.40373012e-02  6.88426061e-02  2.32184421e-01  4.67941342e-01
  3.62312032e-01 -1.19332409e-01 -1.60854212e-01  1.14345648e+00  6.89990956e-02
  3.16423980e-01  7.44308252e-01  1.00000000e+00  1.00000000e+00  1.00000000e+00
  1.00000000e+00  1.00000000e+00  3.34945995e-02  2.34726947e-01  8.13757318e-01
  1.00000000e+00  3.34945995e-02  2.34726947e-01  8.13757318e-01  1.00000000e+00
  3.34945995e-02  2.34726947e-01  8.13757318e-01  1.00000000e+00  1.83109981e-03
  1.39500985e-02  6.84450927e-02  2.32714275e-01  4.70192950e-01  3.58520862e-01
 -1.10777504e-01 -1.48026305e-01  1.13076704e+00  7.08742995e-02  3.39752798e-01
  7.27158595e-01  1.00000000e+00  1.00000000e+00  1.00000000e+00  1.00000000e+00
  1.00000000e+00  3.34945995e-02  2.34726947e-01  8.13757318e-01  1.00000000e+00
  3.34945995e-02  2.34726947e-01  8.13757318e-01  1.00000000e+00  3.34945995e-02
  2.34726947e-01  8.13757318e-01  1.00000000e+00
Coordinates of each shell                  R   N=         204
 -4.37391389e+00 -1.71527347e+00  6.33599985e-01 -4.37391389e+00 -1.71527347e+00
  6.33599985e-01 -4.37391389e+00 -1.71527347e+00  6.33599985e-01 -4.37391389e+00
 -1.71527347e+00  6.33599985e-01 -4.37391389e+00 -1.71527347e+00  6.33599985e-01
 -4.37391389e+00 -1.71527347e+00  6.33599985e-01 -4.37391389e+00 -1.71527347e+00
  6.33599985e-01 -4.37391389e+00 -1.71527347e+00  6.33599985e-01 -1.72738935e+00
 -1.47704593e+00 -3.76858179e-01 -1.72738935e+00 -1.47704593e+00 -3.76858179e-01
 -1.72738935e+00 -1.47704593e+00 -3.76858179e-01 -1.72738935e+00 -1.47704593e+00
 -3.76858179e-01 -1.72738935e+00 -1.47704593e+00 -3.76858179e-01 -1.72738935e+00
 -1.47704593e+00 -3.76858179e-01 -1.72738935e+00 -1.47704593e+00 -3.76858179e-01
 -1.72738935e+00 -1.47704593e+00 -3.76858179e-01 -7.93445920e-01  9.50667495e-01
  8.60821240e-02 -7.93445920e-01  9.50667495e-01  8.60821240e-02 -7.93445920e-01
  9.50667495e-01  8.60821240e-02 -7.93445920e-01  9.50667495e-01  8.60821240e-02
 -7.93445920e-01  9.50667495e-01  8.60821240e-02 -7.93445920e-01  9.50667495e-01
  8.60821240e-02 -7.93445920e-01  9.50667495e-01  8.60821240e-02 -7.93445920e-01
  9.50667495e-01  8.60821240e-02  1.79540489e+00  1.39557135e+00  3.69750768e-01
  1.79540489e+00  1.39557135e+00  3.69750768e-01  1.79540489e+00  1.39557135e+00
  3.69750768e-01  1.79540489e+00  1.39557135e+00  3.69750768e-01  1.79540489e+00
  1.39557135e+00  3.69750768e-01  1.79540489e+00  1.39557135e+00  3.69750768e-01
  1.79540489e+00  1.39557135e+00  3.69750768e-01  1.79540489e+00  1.39557135e+00
  3.69750768e-01  3.22342985e+00 -1.46387835e-01  1.22249493e+00  3.22342985e+00
 -1.46387835e-01  1.22249493e+00  3.22342985e+00 -1.46387835e-01  1.22249493e+00
  3.22342985e+00 -1.46387835e-01  1.22249493e+00  3.22342985e+00 -1.46387835e-01
  1.22249493e+00  3.22342985e+00 -1.46387835e-01  1.22249493e+00  3.22342985e+00
 -1.46387835e-01  1.22249493e+00  3.22342985e+00 -1.46387835e-01  1.22249493e+00
  2.42357563e+00  4.05191351e+00 -4.24583416e-01  2.42357563e+00  4.05191351e+00
 -4.24583416e-01  2.42357563e+00  4.05191351e+00 -4.24583416e-01  2.42357563e+00
  4.05191351e+00 -4.24583416e-01  2.42357563e+00  4.05191351e+00 -4.24583416e-01
  2.42357563e+00  4.05191351e+00 -4.24583416e-01  2.42357563e+00  4.05191351e+00
 -4.24583416e-01  2.42357563e+00  4.05191351e+00 -4.24583416e-01  1.13998631e+00
  5.39906755e+00  4.79968938e-01  1.13998631e+00  5.39906755e+00  4.79968938e-01
  2.17012050e+00  4.23478400e+00 -2.47271496e+00  2.17012050e+00  4.23478400e+00
 -2.47271496e+00  4.37750195e+00  4.47899050e+00  7.53440307e-02  4.37750195e+00
  4.47899050e+00  7.53440307e-02 -5.53378920e-01 -3.05260250e+00 -1.50979542e+00
 -5.53378920e-01 -3.05260250e+00 -1.50979542e+00 -5.53378920e-01 -3.05260250e+00
 -1.50979542e+00 -5.53378920e-01 -3.05260250e+00 -1.50979542e+00 -5.53378920e-01
 -3.05260250e+00 -1.50979542e+00 -5.53378920e-01 -3.05260250e+00 -1.50979542e+00
 -5.53378920e-01 -3.05260250e+00 -1.50979542e+00 -5.53378920e-01 -3.05260250e+00
 -1.50979542e+00 -4.32769263e+00 -1.64984799e+00  2.70387765e+00 -4.32769263e+00
 -1.64984799e+00  2.70387765e+00 -5.19275556e+00 -3.50230800e+00  1.21380098e-02
 -5.19275556e+00 -3.50230800e+00  1.21380098e-02 -5.53774957e+00 -1.30039766e-01
 -9.22989568e-03 -5.53774957e+00 -1.30039766e-01 -9.22989568e-03
Total Energy                               R     -3.817452084877310e+02
Alpha Orbital Energies                     R   N=         145
 -1.92234755e+01 -1.91715747e+01 -1.91715674e+01 -1.03485739e+01 -1.03485697e+01
 -1.02166521e+01 -1.02166506e+01 -1.14070988e+00 -1.07750425e+00 -1.03743686e+00
 -7.96395947e-01 -7.62517696e-01 -6.63794134e-01 -5.28571730e-01 -5.12922730e-01
 -5.11899536e-01 -4.95987455e-01 -4.63637607e-01 -4.57128641e-01 -4.41052417e-01
 -4.25011138e-01 -4.13706166e-01 -4.04313416e-01 -3.83914618e-01 -3.38066756e-01
 -3.10261711e-01 -2.90546226e-01 -4.40939537e-02 -4.08498106e-03 -3.42727671e-03
  1.39454022e-02  3.91791774e-02  3.99053008e-02  4.37228865e-02  5.91495741e-02
  5.98939143e-02  7.46313998e-02  8.66269345e-02  8.86348368e-02  9.83415545e-02
  1.10901398e-01  1.28791923e-01  1.33132218e-01  1.36430716e-01  1.40527390e-01
  1.61832241e-01  1.81715494e-01  1.84562320e-01  1.92531214e-01  2.14628274e-01
  2.34745615e-01  2.49451370e-01  2.53383051e-01  2.61082308e-01  2.78550231e-01
  2.80484854e-01  2.88044757e-01  2.89334466e-01  2.97173448e-01  3.08537781e-01
  3.09235068e-01  3.39252479e-01  3.41964321e-01  3.62590191e-01  3.75462314e-01
  3.77250547e-01  3.93730418e-01  4.84982286e-01  5.02978923e-01  6.22393935e-01
  6.42177000e-01  6.43218308e-01  6.50630077e-01  6.67479434e-01  6.76426578e-01
  7.16195846e-01  7.57825666e-01  7.69130761e-01  8.04974072e-01  8.26750663e-01
  8.98485774e-01  9.29633972e-01  9.49612733e-01  9.71943456e-01  9.77010592e-01
  1.08253200e+00  1.09626654e+00  1.11481831e+00  1.12034120e+00  1.18135408e+00
  1.18194396e+00  1.22795010e+00  1.24264302e+00  1.27403833e+00  1.28815811e+00
  1.30267039e+00  1.30727936e+00  1.34696561e+00  1.34897003e+00  1.39491124e+00
  1.41188679e+00  1.43386265e+00  1.51110537e+00  1.56733900e+00  1.60941954e+00
  1.66362498e+00  1.68142772e+00  1.70842316e+00  1.75945303e+00  1.77092267e+00
  1.78122548e+00  1.81955910e+00  1.85174677e+00  1.89406171e+00  1.90643490e+00
  1.94399103e+00  1.95147511e+00  1.98272467e+00  2.07040259e+00  2.08892833e+00
  2.19041112e+00  2.20254405e+00  2.22293478e+00  2.25163832e+00  2.37569894e+00
  2.40980210e+00  2.41242570e+00  2.45943262e+00  2.52213570e+00  2.59672281e+00
  2.62370762e+00  2.77461972e+00  2.81282572e+00  2.84109364e+00  3.03807321e+00
  3.11241542e+00  3.14881144e+00  3.21875898e+00  4.18069392e+00  4.20649336e+00
  4.23448082e+00  4.32048285e+00  4.40757320e+00  4.50766542e+00  4.59133699e+00
Alpha MO coefficients                      R   N=       21025
 -1.68660352e-05 -1.54192986e-04 -1.74335862e-05  1.29168053e-05  9.18241551e-06
  7.65974067e-05 -1.17245193e-04 -2.88732967e-04 -4.58167440e-05  3.50726081e-05
  3.50224003e-05 -3.70189516e-05  3.81880083e-05 -1.89161928e-05  1.24473895e-05
  8.48859481e-03  1.93298041e-03  3.67553062e-04 -4.86315104e-04  4.31188489e-05
  3.12183169e-05 -1.66358147e-04 -3.13852497e-04 -5.19561532e-05 -1.00016169e-03
 -5.46149041e-04  9.00960537e-04  5.22642627e-04  6.31667850e-07 -3.70230383e-04
  6.76100306e-05 -1.66762001e-04 -1.14383468e-05 -1.37050912e-04 -9.88182986e-03
  2.82928908e-03 -6.54388670e-04 -1.87734430e-03 -9.92515191e-01 -2.53259019e-02
 -5.91969614e-04  7.09267198e-04  6.40938293e-05 -1.56694662e-02  5.90858994e-04
 -7.07748254e-04 -6.38785255e-05  8.97860648e-03  8.93969868e-03  8.69908291e-03
  8.65332602e-05  6.39445547e-05  7.25341609e-05  7.58205897e-03 -1.02520387e-04
  1.23419680e-04  1.11736259e-05  4.31135834e-05  3.12336660e-05  3.42349436e-04
  1.03044446e-04  3.28737501e-05 -9.99760320e-04 -8.28006192e-04  7.45356212e-04
 -3.74378242e-04 -4.27031212e-04  3.69806752e-05  8.79940457e-05 -6.72172246e-05
 -9.37730601e-05  1.48867406e-05 -9.88350319e-03  2.90069355e-04 -3.07971795e-03
  1.54253558e-03  1.75084517e-05 -2.26478189e-04  6.64002189e-06  2.67704097e-07
  5.71631807e-06  1.24405985e-03 -2.61573774e-04  3.10678402e-04 -1.96753581e-04
 -2.58222170e-05 -6.86776997e-05 -1.31009865e-04 -4.78862191e-05  5.20109202e-05
 -5.57266683e-05  3.96291334e-04 -1.12958008e-04  4.26354241e-04 -1.89937653e-04
 -1.68512437e-05 -1.54107038e-04 -1.02822986e-05  2.02599232e-05 -6.22917588e-06
  7.65150187e-05  3.08186830e-04  5.99319357e-05  2.54073648e-05  4.76447663e-05
  2.68252139e-05 -4.13697642e-05  3.34160259e-05  3.64878131e-06 -1.60318667e-05
  8.48691650e-03 -6.70703851e-04 -1.87972534e-03  3.51214019e-04 -1.42839146e-05
 -1.50897899e-04  1.10943962e-05 -1.81531909e-04 -2.14594331e-05 -2.70493218e-04
  1.74974016e-05 -2.26557299e-04 -1.97548940e-06 -5.84615043e-06 -6.23238462e-06
  1.24473589e-03 -2.39264179e-04  2.89373749e-04  2.50843814e-04 -8.94653651e-05
 -2.53264109e-05 -1.10834071e-04 -2.48084426e-05 -5.23915446e-05  7.64122658e-05
  3.96629577e-04 -3.80178540e-04  1.64787642e-04  2.42951986e-04  1.10614109e-05
 -1.81928503e-04 -2.14750108e-05 -2.70538004e-04 -1.42897635e-05 -1.50787633e-04
 -1.41496986e-05 -6.10885615e-05 -1.55842925e-06 -1.00748482e-06  8.91445413e-06
  4.92895315e-04  2.15052213e-04  6.45257298e-05 -8.59769131e-05  5.27761684e-06
 -2.63376225e-05 -2.67809723e-05  1.35587111e-05 -5.39775931e-07 -7.78526463e-06
  5.77738922e-03  1.25370009e-03  1.35480544e-04 -6.21178521e-04 -5.70658001e-06
  7.41579395e-05 -1.81224779e-06 -9.93688729e-06 -2.27541144e-05  2.38625347e-04
  2.58039928e-04  1.02870778e-05 -1.46899927e-04 -9.94657328e-05 -3.88869059e-05
 -6.28966865e-05  1.82388423e-05  4.81990657e-06 -1.07825425e-05 -2.36647581e-03
  3.48072616e-03  2.83475904e-04 -5.05205464e-04 -5.36407272e-05 -5.54875558e-05
  8.79251047e-07 -6.96950700e-06 -1.12461049e-06  2.29299345e-04  3.66097803e-05
  1.00222365e-04  3.54156591e-05  3.34984955e-05 -4.92905423e-05 -1.94027469e-05
 -7.65038061e-05  4.23742501e-05 -2.80674261e-05 -2.14448252e-04  1.33677203e-04
  8.03802398e-05 -1.01206386e-04  1.10307383e-05 -3.97428106e-04 -9.78934143e-05
  1.48862062e-04 -7.52531623e-05 -9.62887350e-05  6.52507439e-04 -6.72966925e-04
  3.62798898e-04  3.26806148e-04  3.80335814e-04  2.39398660e-04 -2.38420507e-04
  1.24975274e-04 -1.29292551e-04 -1.12505687e-03 -4.68247177e-04  4.00715840e-03
 -6.59853904e-04 -9.79796223e-01 -2.49189872e-02  8.66728415e-04 -9.26256320e-04
  5.03066180e-04 -1.55547916e-02 -1.64067216e-04  2.55334327e-04 -7.67950124e-05
  8.46383127e-03  8.44928510e-03  8.52130995e-03  9.11864506e-05 -4.91919657e-05
  6.45820452e-05  7.10496593e-03 -2.10729428e-04 -3.10897676e-04 -1.54575637e-04
  1.47995698e-06 -2.39630613e-05  1.39563592e-05 -7.70108986e-06  1.05098097e-05
  1.75056238e-04 -1.16606671e-04  3.21574290e-05 -5.16303017e-05  1.68566370e-06
  1.42671323e-05  1.30767394e-05 -4.78870987e-05  1.48996071e-05 -1.40431113e-05
 -4.22122655e-03  7.46738726e-04  6.92083973e-04 -3.49252840e-04 -1.92223402e-05
  2.75673921e-05 -3.36994195e-06 -3.52207966e-05  6.65210142e-06 -1.35963783e-04
  1.58718857e-01  4.05046396e-03 -1.16965960e-04  1.59297350e-04  9.58228365e-05
  2.42397199e-03  4.44286996e-05 -1.86996090e-04 -5.42672753e-05 -1.40872802e-03
 -1.39082410e-03 -1.38554896e-03 -2.27837239e-05 -2.35919746e-05 -3.34170462e-06
 -1.90567373e-03 -2.23967075e-04 -2.02819698e-04 -2.70913073e-04 -1.08934538e-05
 -4.13344631e-05  4.36952555e-06 -5.47484733e-05 -3.19020428e-06 -1.08367285e-04
  3.14763752e-06  4.55581197e-05 -3.75014752e-06  1.49738014e-05  1.01725667e-05
 -3.48411143e-04 -6.57076132e-05 -1.41832454e-04 -3.99212484e-05  1.10183985e-06
 -5.08667849e-06 -1.06623111e-05  4.21897492e-05  1.51925976e-05 -1.96721506e-05
  2.52984814e-03  4.09540928e-04  6.37561204e-04 -1.65198065e-04 -9.73430694e-06
  3.94201221e-04  1.28423932e-04 -1.16587505e-04 -9.66591071e-05  2.21906512e-05
 -6.20895422e-04  7.52218758e-04  5.62947702e-04 -2.70166593e-04 -3.78077091e-04
 -2.82300316e-04  2.11962598e-04  1.37230847e-04 -1.86821289e-04  1.96953689e-03
  2.82764927e-03 -1.23550079e-03 -1.00937271e-03  7.43874589e-05  7.69287691e-05
 -7.41739323e-06  4.62313063e-06  4.21260514e-08 -3.17895048e-04  1.01616962e-04
 -1.79097196e-05  1.75352756e-05  6.58585576e-05 -3.04035524e-05  1.33986789e-05
  7.60242490e-05  6.54732827e-06 -5.27321515e-05  2.97341897e-04  5.48762164e-05
  1.07518185e-04 -6.85532017e-05  2.34249996e-06  5.40969211e-05  1.98515477e-05
 -4.70648787e-05  2.20932386e-06 -2.19697250e-04 -1.70448047e-04  5.05101534e-04
 -2.51666640e-04 -6.98543597e-05 -1.71711900e-05 -1.58314126e-05  7.27487612e-05
 -2.91406636e-05  4.18757040e-05  2.86992271e-03  1.07144264e-03  2.26235507e-03
 -1.78310800e-05  1.58724597e-01  4.02220369e-03 -1.37602450e-04  1.47740715e-04
 -9.58923870e-05  2.62124790e-03 -1.35049001e-04  1.13277751e-06 -6.26163636e-06
 -1.34106905e-03 -1.33886629e-03 -1.37203738e-03 -2.87585646e-06  2.58504088e-05
  1.53014981e-06 -3.55740826e-04 -2.07357976e-04 -6.04122775e-05 -2.29461221e-04
  1.44262171e-05  7.23826992e-05 -5.16489360e-06  1.71939660e-07  5.79255632e-06
 -5.78207199e-04  1.39004385e-04  2.09053304e-04 -5.99650180e-05  2.28951668e-05
 -4.56899672e-06  2.24557482e-05 -5.14284272e-06  1.52596725e-06  2.23062079e-06
 -4.68538084e-03  7.57234275e-05  1.10801312e-03 -4.31673642e-04  9.74285558e-06
  1.05334795e-04  1.25786097e-05  5.54082506e-05 -6.81653618e-06  1.03002058e-04
  9.79797160e-01  2.49143758e-02 -7.03418908e-04  9.54622443e-04  6.76557273e-04
  1.55865317e-02  2.10153114e-04 -1.45203969e-04 -1.05811691e-04 -8.47556702e-03
 -8.44069695e-03 -8.49661093e-03 -7.23179705e-05 -6.20684625e-05  8.08238978e-05
 -6.85430893e-03 -3.01606119e-04 -7.64548502e-05 -5.62667083e-05  7.21912687e-06
  5.09647530e-05 -8.46710320e-06  1.61479643e-04  2.12583730e-05  6.92068863e-06
  7.43410148e-04  8.52717107e-05 -3.47745294e-05  7.97718933e-05  6.85771451e-05
  1.57963735e-03  6.05900399e-06 -5.32687598e-04 -5.36483599e-04 -2.94209987e-04
 -9.91047115e-06 -3.72488220e-05 -3.81691356e-05  1.19101390e-04  2.12567498e-05
  2.96135624e-03 -1.66113414e-05  2.04807664e-04 -3.34412942e-04  7.98100617e-01
  3.98659019e-02  7.48769450e-04  4.79783207e-04 -2.26156199e-04 -1.46763417e-02
 -1.71828386e-04 -9.19472269e-04  1.14788681e-04 -6.80290146e-03 -6.45085791e-03
 -6.90493652e-03 -1.69072302e-04 -2.71970012e-04  3.68759121e-04 -8.59279162e-03
  1.29868438e-03 -2.12073762e-03 -8.02141834e-04  7.45806733e-06  1.00298734e-04
 -5.37563123e-05 -5.33424483e-05  3.77872574e-05 -2.19539705e-04  8.74812974e-04
  9.19225902e-04 -9.47332358e-05  4.77247988e-04 -4.82754466e-04  7.02505675e-05
 -1.47531314e-04  8.28295825e-06 -1.14808983e-04  1.53223930e-03 -5.60591940e-03
 -5.14025658e-03 -4.61624264e-04 -5.91264452e-01 -2.95672852e-02  4.64962587e-04
  4.97971322e-04 -1.75994892e-04  1.10232706e-02 -6.19389845e-04 -6.47463348e-04
  5.45350633e-04  4.79333637e-03  4.96536244e-03  5.16793387e-03  2.11605666e-04
 -1.66655291e-04  2.11643168e-04  3.45811556e-03 -2.02452602e-03  1.34694840e-04
  4.23775777e-04  1.03675983e-04 -1.54820619e-04  7.41452259e-06  1.85954912e-05
  8.30947816e-06  4.11468688e-04 -1.59986980e-04  3.13894992e-04 -1.86507411e-04
 -7.23762097e-05 -6.65725430e-05 -1.65568835e-04 -1.20636720e-04  7.76544599e-05
 -1.04287185e-04 -3.68601826e-03  1.58427222e-03 -1.10178895e-03  6.59541419e-04
 -5.72206333e-04 -1.42251169e-04  6.97860960e-05 -3.06779654e-05  4.61782899e-05
 -3.65866692e-04 -6.71364809e-04 -3.08744069e-04 -3.60156706e-04 -7.69355896e-06
  2.08506792e-04 -6.19860854e-06  7.73622481e-05 -3.34120149e-05 -6.62336812e-05
  1.65095296e-03 -2.03869916e-04 -1.03110368e-03 -1.53546578e-04 -4.12876803e-05
  6.20294929e-04  4.24494162e-05 -1.63053569e-04  6.53348578e-05  6.33129099e-04
 -1.27355440e-04  2.83594581e-04  2.61788801e-05  7.45471696e-06  1.03883156e-05
 -1.15121030e-03  3.50367068e-04 -5.31500606e-04 -4.37322590e-04  1.90620173e-04
  7.30843999e-05  2.11334929e-04  1.19028714e-04  1.26988094e-04 -1.68238973e-04
  4.27675015e-03 -1.13082128e-03  1.91315288e-03  1.28158614e-03 -6.50216807e-05
  4.75121091e-05 -8.22206722e-05 -8.25453247e-04  6.17873751e-06 -6.55313805e-04
  4.77030074e-04 -2.09123576e-04 -6.88106761e-05  2.49789351e-05  3.59204894e-05
  3.93781748e-03  1.58962314e-03  2.01555068e-04 -4.46232738e-04 -2.35491111e-04
 -1.01822830e-04 -1.16306400e-04 -5.28310179e-06  8.13188296e-05 -2.03519626e-05
  1.54057733e-02  3.58805814e-03  6.92120370e-04 -8.88922618e-04  5.91244527e-01
  2.94209705e-02  5.45805577e-04  2.45191609e-04 -1.06010573e-04 -1.03597114e-02
  1.84132055e-03 -1.13200298e-03 -1.52378880e-03 -4.99257080e-03 -4.78582725e-03
 -5.18209487e-03 -1.35731468e-04 -1.96088049e-04  3.15695790e-04 -1.63588895e-02
  4.96198087e-03  7.09770268e-05 -3.41120781e-03  4.98846352e-05  6.72471076e-04
  2.51392569e-05 -1.25872186e-05 -7.45045292e-06 -1.46534977e-03 -7.37056654e-04
  5.90401709e-04  7.95743929e-05 -1.80721183e-04  6.88780487e-05  5.45137175e-04
 -2.44165784e-04 -1.25873124e-04 -1.26302568e-04  1.02931860e-02  2.52893056e-03
 -1.26199302e-03 -1.14864247e-04  7.98085883e-01  3.97581308e-02 -4.87070813e-04
 -6.77607089e-04  1.40395621e-04 -1.41855513e-02  1.13662392e-03 -2.05917133e-03
  1.11826307e-03 -6.47314458e-03 -6.63774961e-03 -7.07286630e-03 -2.89095454e-04
  2.73721662e-04 -2.69143184e-04 -1.81417465e-02 -9.02764959e-05 -5.47711072e-03
  2.95602955e-03 -9.67959138e-05  4.65385569e-04 -2.02262825e-05 -1.86454650e-05
 -1.33062676e-05 -2.60412716e-03  1.17416543e-03 -6.22718851e-04  5.77202823e-04
  8.30036477e-05  2.08222913e-04  3.39588355e-04  1.58653763e-04 -1.34838589e-04
  1.03648310e-04  2.57259015e-03 -9.05756012e-04  1.78575532e-03 -1.15651913e-03
  6.73074268e-04 -1.74910508e-04 -3.72001587e-05  8.81525717e-05 -4.23508083e-05
  4.22517738e-03 -2.63019903e-04 -1.54432520e-03  4.49148588e-04 -1.11190366e-04
 -3.18187172e-04 -1.03688590e-04 -4.92197277e-05  1.31975832e-06  9.39320953e-05
  1.55874603e-02 -1.24863173e-03 -3.32728543e-03  7.14415435e-04 -1.14372409e-04
 -2.18724549e-04 -8.45630359e-05 -3.68676405e-04 -6.75119470e-05 -7.51176570e-04
 -6.23620236e-05  4.00154343e-04  1.62438165e-05  1.35868315e-05  1.03909453e-05
 -2.37181319e-03  2.52872053e-04 -1.08914466e-03 -6.40998644e-04  2.19994924e-04
  5.14126078e-05  2.43454331e-04  6.67353988e-05  6.12462087e-05 -1.50813686e-04
  1.38928244e-03 -1.20426833e-03  5.41847641e-04  1.08731674e-03 -6.86843247e-05
 -4.00999791e-04 -4.54990347e-05 -5.33534432e-04 -1.21539019e-04 -2.87211036e-05
  5.11579581e-01  2.61317234e-02  2.05069362e-04  1.39560843e-04 -2.42825120e-05
 -1.05236049e-02 -1.18004687e-03 -5.26523847e-04  3.19956176e-04 -4.72081592e-03
 -4.65843550e-03 -4.67260712e-03  1.98393935e-05  5.27717082e-05  5.02733375e-06
 -3.78357137e-03 -8.69488597e-04 -7.48704206e-05  3.52352213e-04 -5.15146391e-04
  1.28838615e-04  8.40134173e-05 -1.13236142e-05  3.21306720e-05  4.60838598e-04
 -2.16756877e-03 -9.74187304e-04  2.89119963e-04 -1.52870178e-04 -7.06615501e-05
  2.49691988e-05 -3.02574047e-05  5.97527263e-05 -1.27541697e-05 -6.34827826e-04
 -1.65895739e-03 -1.43014271e-03 -2.51378216e-04  1.78903319e-05  9.91858528e-05
  1.13483192e-04  7.82546648e-05  8.70513623e-06 -3.37110347e-04 -8.79516288e-04
 -4.96794962e-04 -2.67371272e-04 -5.07418411e-05  9.10997884e-05  9.66487796e-05
  1.20067445e-05 -6.75337449e-05  9.58443104e-05 -3.15309094e-04 -2.03559565e-03
 -1.82778873e-03  4.92149325e-04  8.90833729e-04 -1.13034370e-05  2.70490909e-05
  1.22761394e-04  1.21692265e-05 -1.90950376e-03 -1.80035072e-03 -3.43920073e-03
  7.13855700e-04  1.52483919e-04  3.03966353e-04  2.75844607e-05  5.82299336e-05
 -1.86464212e-06 -9.25291935e-05 -2.48234586e-03 -2.34406822e-03 -2.42157611e-03
  8.38854993e-05 -3.47659036e-06  2.15411146e-05 -9.04397661e-06  2.56116446e-06
  1.60451132e-06 -1.98354320e-05  5.28339078e-04  1.62012634e-04  5.51515701e-05
 -1.53603674e-04  2.71505952e-05  5.24867509e-05  3.08547321e-05 -7.36681100e-05
  4.06305080e-05 -1.33861214e-03  9.19004155e-04 -2.56389099e-05  3.88949965e-04
 -8.51030560e-01 -4.34420415e-02  2.31369965e-04  2.71369228e-04 -2.07614168e-05
  1.75762780e-02 -9.43888511e-04 -1.85668141e-03  3.63078844e-04  7.74993566e-03
  7.88816649e-03  7.77822129e-03 -1.86698842e-06 -1.30525043e-05 -5.98870733e-05
  7.36399218e-03 -2.68016354e-04 -1.62899201e-03  5.05453426e-04  4.59518233e-05
 -3.12850515e-03  6.61876172e-05 -3.25169021e-03  9.47580180e-05 -2.63311332e-03
  1.82203210e-05  5.78788174e-05  8.54685975e-06 -1.15882051e-07  1.28569766e-06
 -3.69518282e-04  1.57143999e-04  2.15099778e-04  3.70208274e-05  1.60067564e-05
  1.22436838e-04  3.25779058e-05  1.84836921e-05 -1.87092501e-05  5.48738294e-05
  1.12563085e-03  1.56772220e-04  6.80293886e-04  4.00978255e-04 -4.31370363e-05