Generated by Psi4
     FORCE                           RHF                       TESTBAS
Number of atoms                            I               10
Charge                                     I                0
Multiplicity                               I                1
Number of electrons                        I               32
Number of alpha electrons                  I               16
Number of beta electrons                   I               16
Number of basis functions                  I               88
Number of independent functions            I               88
Atomic numbers                             I   N=          10
           6           6           6           8           1           1
           1           1           1           1
Nuclear charges                            R   N=          10
  6.00000000e+00  6.00000000e+00  6.00000000e+00  8.00000000e+00  1.00000000e+00
  1.00000000e+00  1.00000000e+00  1.00000000e+00  1.00000000e+00  1.00000000e+00
Current cartesian coordinates              R   N=          30
 -2.75688289e+00 -3.19199639e-01 -1.20967500e-01  1.04974469e-01 -1.50674513e-01
  2.29992421e-02  1.26101171e+00  2.46590819e+00 -2.14695369e-01  1.41113984e+00
 -2.02509102e+00  3.17051373e-01 -3.62415289e+00  8.26893979e-01  1.37506851e+00
 -3.36237004e+00 -2.28281275e+00  7.38165419e-02 -3.43503870e+00  4.40794891e-01
 -1.92833310e+00  5.39148359e-01  3.71286466e+00  1.27789375e+00  7.30384494e-01
  3.32807593e+00 -2.02553579e+00  3.31738434e+00  2.34741203e+00 -8.19130400e-02
Integer atomic weights                     I   N=          10
          12          12          12          15           1           1
           1           1           1           1
Real atomic weights                        R   N=          10
  1.20000000e+01  1.20000000e+01  1.20000000e+01  1.59949146e+01  1.00782503e+00
  1.00782503e+00  1.00782503e+00  1.00782503e+00  1.00782503e+00  1.00782503e+00
Number of primitive shells                 I               92
Number of contracted shells                I               44
Pure/Cartesian d shells                    I                1
Pure/Cartesian f shells                    I                1
Highest angular momentum                   I                2
Largest degree of contraction              I                6
Shell types                                I   N=          44
           0           0           1           0           1           2
           0           1           0           0           1           0
           1           2           0           1           0           0
           1           0           1           2           0           1
           0           0           1           0           1           2
           0           1           0           0           0           0
           0           0           0           0           0           0
           0           0
Number of primitives per shell             I   N=          44
           6           3           3           1           1           1
           1           1           6           3           3           1
           1           1           1           1           6           3
           3           1           1           1           1           1
           6           3           3           1           1           1
           1           1           3           1           3           1
           3           1           3           1           3           1
           3           1
Shell to atom map                          I   N=          44
           1           1           1           1           1           1
           1           1           2           2           2           2
           2           2           2           2           3           3
           3           3           3           3           3           3
           4           4           4           4           4           4
           4           4           5           5           6           6
           7           7           8           8           9           9
          10          10
Primitive exponents                        R   N=          92
  3.04752490e+03  4.57369510e+02  1.03948690e+02  2.92101550e+01  9.28666300e+00
  3.16392700e+00  7.86827240e+00  1.88128850e+00  5.44249300e-01  7.86827240e+00
  1.88128850e+00  5.44249300e-01  1.68714400e-01  1.68714400e-01  8.00000000e-01
  4.38000000e-02  4.38000000e-02  3.04752490e+03  4.57369510e+02  1.03948690e+02
  2.92101550e+01  9.28666300e+00  3.16392700e+00  7.86827240e+00  1.88128850e+00
  5.44249300e-01  7.86827240e+00  1.88128850e+00  5.44249300e-01  1.68714400e-01
  1.68714400e-01  8.00000000e-01  4.38000000e-02  4.38000000e-02  3.04752490e+03
  4.57369510e+02  1.03948690e+02  2.92101550e+01  9.28666300e+00  3.16392700e+00
  7.86827240e+00  1.88128850e+00  5.44249300e-01  7.86827240e+00  1.88128850e+00
  5.44249300e-01  1.68714400e-01  1.68714400e-01  8.00000000e-01  4.38000000e-02
  4.38000000e-02  5.48467170e+03  8.25234950e+02  1.88046960e+02  5.29645000e+01
  1.68975700e+01  5.79963530e+00  1.55396160e+01  3.59993360e+00  1.01376180e+00
  1.55396160e+01  3.59993360e+00  1.01376180e+00  2.70005800e-01  2.70005800e-01
  8.00000000e-01  8.45000000e-02  8.45000000e-02  1.87311370e+01  2.82539370e+00
  6.40121700e-01  1.61277800e-01  1.87311370e+01  2.82539370e+00  6.40121700e-01
  1.61277800e-01  1.87311370e+01  2.82539370e+00  6.40121700e-01  1.61277800e-01
  1.87311370e+01  2.82539370e+00  6.40121700e-01  1.61277800e-01  1.87311370e+01
  2.82539370e+00  6.40121700e-01  1.61277800e-01  1.87311370e+01  2.82539370e+00
  6.40121700e-01  1.61277800e-01
Contraction coefficients                   R   N=          92
  1.83470016e-03  1.40373012e-02  6.88426061e-02  2.32184421e-01  4.67941342e-01
  3.62312032e-01 -1.19332409e-01 -1.60854212e-01  1.14345648e+00  6.89990956e-02
  3.16423980e-01  7.44308252e-01  1.00000000e+00  1.00000000e+00  1.00000000e+00
  1.00000000e+00  1.00000000e+00  1.83470016e-03  1.40373012e-02  6.88426061e-02
  2.32184421e-01  4.67941342e-01  3.62312032e-01 -1.19332409e-01 -1.60854212e-01
  1.14345648e+00  6.89990956e-02  3.16423980e-01  7.44308252e-01  1.00000000e+00
  1.00000000e+00  1.00000000e+00  1.00000000e+00  1.00000000e+00  1.83470016e-03
  1.40373012e-02  6.88426061e-02  2.32184421e-01  4.67941342e-01  3.62312032e-01
 -1.19332409e-01 -1.60854212e-01  1.14345648e+00  6.89990956e-02  3.16423980e-01
  7.44308252e-01  1.00000000e+00  1.00000000e+00  1.00000000e+00  1.00000000e+00
  1.00000000e+00  1.83109981e-03  1.39500985e-02  6.84450927e-02  2.32714275e-01
  4.70192950e-01  3.58520862e-01 -1.10777504e-01 -1.48026305e-01  1.13076704e+00
  7.08742995e-02  3.39752798e-01  7.27158595e-01  1.00000000e+00  1.00000000e+00
  1.00000000e+00  1.00000000e+00  1.00000000e+00  3.34945995e-02  2.34726947e-01
  8.13757318e-01  1.00000000e+00  3.34945995e-02  2.34726947e-01  8.13757318e-01
  1.00000000e+00  3.34945995e-02  2.34726947e-01  8.13757318e-01  1.00000000e+00
  3.34945995e-02  2.34726947e-01  8.13757318e-01  1.00000000e+00  3.34945995e-02
  2.34726947e-01  8.13757318e-01  1.00000000e+00  3.34945995e-02  2.34726947e-01
  8.13757318e-01  1.00000000e+00
Coordinates of each shell                  R   N=         132
 -2.75688289e+00 -3.19199639e-01 -1.20967500e-01 -2.75688289e+00 -3.19199639e-01
 -1.20967500e-01 -2.75688289e+00 -3.19199639e-01 -1.20967500e-01 -2.75688289e+00
 -3.19199639e-01 -1.20967500e-01 -2.75688289e+00 -3.19199639e-01 -1.20967500e-01
 -2.75688289e+00 -3.19199639e-01 -1.20967500e-01 -2.75688289e+00 -3.19199639e-01
 -1.20967500e-01 -2.75688289e+00 -3.19199639e-01 -1.20967500e-01  1.04974469e-01
 -1.50674513e-01  2.29992421e-02  1.04974469e-01 -1.50674513e-01  2.29992421e-02
  1.04974469e-01 -1.50674513e-01  2.29992421e-02  1.04974469e-01 -1.50674513e-01
  2.29992421e-02  1.04974469e-01 -1.50674513e-01  2.29992421e-02  1.04974469e-01
 -1.50674513e-01  2.29992421e-02  1.04974469e-01 -1.50674513e-01  2.29992421e-02
  1.04974469e-01 -1.50674513e-01  2.29992421e-02  1.26101171e+00  2.46590819e+00
 -2.14695369e-01  1.26101171e+00  2.46590819e+00 -2.14695369e-01  1.26101171e+00
  2.46590819e+00 -2.14695369e-01  1.26101171e+00  2.46590819e+00 -2.14695369e-01
  1.26101171e+00  2.46590819e+00 -2.14695369e-01  1.26101171e+00  2.46590819e+00
 -2.14695369e-01  1.26101171e+00  2.46590819e+00 -2.14695369e-01  1.26101171e+00
  2.46590819e+00 -2.14695369e-01  1.41113984e+00 -2.02509102e+00  3.17051373e-01
  1.41113984e+00 -2.02509102e+00  3.17051373e-01  1.41113984e+00 -2.02509102e+00
  3.17051373e-01  1.41113984e+00 -2.02509102e+00  3.17051373e-01  1.41113984e+00
 -2.02509102e+00  3.17051373e-01  1.41113984e+00 -2.02509102e+00  3.17051373e-01
  1.41113984e+00 -2.02509102e+00  3.17051373e-01  1.41113984e+00 -2.02509102e+00
  3.17051373e-01 -3.62415289e+00  8.26893979e-01  1.37506851e+00 -3.62415289e+00
  8.26893979e-01  1.37506851e+00 -3.36237004e+00 -2.28281275e+00  7.38165419e-02
 -3.36237004e+00 -2.28281275e+00  7.38165419e-02 -3.43503870e+00  4.40794891e-01
 -1.92833310e+00 -3.43503870e+00  4.40794891e-01 -1.92833310e+00  5.39148359e-01
  3.71286466e+00  1.27789375e+00  5.39148359e-01  3.71286466e+00  1.27789375e+00
  7.30384494e-01  3.32807593e+00 -2.02553579e+00  7.30384494e-01  3.32807593e+00
 -2.02553579e+00  3.31738434e+00  2.34741203e+00 -8.19130400e-02  3.31738434e+00
  2.34741203e+00 -8.19130400e-02
Total Energy                               R     -1.931662650210385e+02
Alpha Orbital Energies                     R   N=          88
 -1.91526713e+01 -1.02899453e+01 -1.01996948e+01 -1.01996839e+01 -1.04920739e+00
 -7.76996833e-01 -7.18727570e-01 -5.40978613e-01 -4.67534247e-01 -4.67206776e-01
 -4.58255372e-01 -4.12050502e-01 -4.03484777e-01 -3.87575550e-01 -3.58664166e-01
 -2.58282152e-01 -2.75739890e-02  5.09372654e-04  2.74731200e-02  4.54920806e-02
  4.80337864e-02  5.41431175e-02  7.04432013e-02  7.76275095e-02  9.26176155e-02
  1.02600704e-01  1.04573845e-01  1.17247652e-01  1.41803660e-01  1.72061013e-01
  1.99999278e-01  2.08082006e-01  2.31272207e-01  2.33041053e-01  2.64165402e-01
  2.76466656e-01  2.91624358e-01  2.95042813e-01  3.34267952e-01  3.34484907e-01
  3.75643918e-01  4.82269641e-01  5.89255534e-01  6.35723185e-01  6.42016064e-01
  6.55208107e-01  6.63045440e-01  7.11397698e-01  7.78709192e-01  7.90043856e-01
  8.10592955e-01  9.15824263e-01  9.22265363e-01  9.93441510e-01  1.00731501e+00
  1.01793296e+00  1.09199583e+00  1.10878370e+00  1.17959202e+00  1.25177431e+00
  1.30664403e+00  1.34862815e+00  1.40182361e+00  1.43381220e+00  1.44202180e+00
  1.60824340e+00  1.77039395e+00  1.77342281e+00  1.78037465e+00  1.80103608e+00
  1.92755351e+00  1.93569102e+00  2.08955678e+00  2.09250003e+00  2.14876298e+00
  2.21623405e+00  2.21735067e+00  2.39272230e+00  2.41256059e+00  2.50162800e+00
  2.59122776e+00  2.69365739e+00  2.97908972e+00  3.09406810e+00  4.13576446e+00
  4.21324112e+00  4.30105391e+00  4.49258419e+00
Alpha MO coefficients                      R   N=        7744
  1.21646536e-06  6.51462370e-05 -2.20966699e-05  1.26186269e-05 -2.74736769e-06
 -2.79171752e-04  1.10935885e-05 -1.44699068e-04  1.76405369e-05 -4.58925244e-05
 -2.23146152e-05 -2.53479473e-06  4.17332477e-05 -7.80302275e-06  5.18655693e-06
 -1.77781868e-04 -1.76868687e-04  5.56469270e-04 -7.57066983e-05 -9.80496234e-06
  4.11084764e-04  1.57324348e-04 -2.25767382e-04  3.54478561e-05 -8.48713992e-05
 -6.13252893e-04  8.80050403e-04 -1.38159339e-04 -2.53747065e-04 -3.70743315e-04
 -1.70948513e-04  1.82822580e-04 -2.72070698e-05  3.81811889e-05  2.71056811e-03
  1.46121005e-03 -2.09682392e-03  3.30020330e-04  1.21671634e-06  6.51483740e-05
 -4.15467480e-06  2.50555468e-05 -3.16557153e-06 -2.79175553e-04  1.32113227e-04
 -6.08072965e-05  1.48120331e-05 -1.59772128e-06 -6.63796609e-05 -2.76580723e-06
  2.27580813e-05 -2.65368504e-06  1.00251302e-05 -1.77880704e-04 -4.61294053e-04
  3.59326993e-04 -6.90745859e-05  9.92589146e-01  2.52639636e-02 -7.18451858e-04
  1.03101206e-03 -1.61835114e-04  1.53879282e-02  1.88972936e-04 -2.71179529e-04
  4.26690279e-05 -8.54692922e-03 -8.51398322e-03 -8.60185788e-03 -5.17437474e-05
  9.81993737e-06 -1.50862620e-05 -6.38370945e-03 -1.48003475e-04  2.12376806e-04
 -3.35427941e-05 -5.80628184e-06  1.49747132e-04 -1.97130589e-06  1.86187795e-04
 -5.78628461e-06  1.49764067e-04 -5.80564475e-06  1.49752902e-04 -5.78739425e-06
  1.49762202e-04 -1.96920927e-06  1.86192282e-04  1.21571833e-03 -9.23049753e-06
 -1.43744592e-04 -1.02598191e-05 -7.04833286e-06  3.18549747e-03  1.31657979e-03
  4.32811289e-04  2.53642308e-05 -4.70658306e-04 -9.39597513e-05 -2.15318783e-05
  3.71006820e-06 -3.01794693e-05  1.03337610e-05 -5.03428712e-03 -1.52886337e-03
 -2.11625398e-04 -6.29212573e-05  9.93078733e-01  4.93954559e-02  4.95487469e-04
 -7.11067599e-04  1.11454803e-04 -1.57511257e-02  8.25289072e-04 -1.18437665e-03
  1.83872397e-04 -8.67714460e-03 -8.41475198e-03 -9.09892485e-03 -4.11998607e-04
  7.71290344e-05 -1.17986327e-04  9.42046082e-03 -1.23258115e-03  1.76892048e-03
 -2.75646395e-04  1.21566239e-03 -9.23091943e-06  5.97453439e-05  1.30788766e-04
 -1.17978517e-05  3.18547824e-03 -8.65668430e-04 -1.07985750e-03  7.62880681e-05
 -1.37982247e-04 -4.24900864e-04 -2.32646386e-05 -1.38795117e-04  8.17241133e-06
  4.64559983e-05 -5.03428672e-03  7.31837010e-04  1.35544004e-03 -1.15648745e-04
 -1.12128653e-04  4.40486858e-04  2.27329849e-05 -3.26255654e-05  5.04254580e-06
 -2.11586956e-03  6.80997315e-04 -9.77252227e-04  1.53981741e-04  1.72410454e-04
 -3.36213070e-06  4.49054742e-04  2.75934366e-04 -5.14133782e-05  7.84438300e-05
  4.66806487e-03 -1.46152608e-03  2.09735630e-03 -3.29289423e-04 -1.48362731e-04
 -4.82329102e-05 -4.52726229e-05 -2.68965678e-04 -1.48334412e-04 -4.75221263e-05
 -1.48362499e-04 -4.82586924e-05 -1.48336744e-04 -4.75095225e-05 -4.52733449e-05
 -2.68984957e-04  7.11505331e-01  3.64839707e-02  9.05303155e-05  2.54002422e-04
 -2.45978917e-05 -1.56471988e-02 -1.88919162e-03 -5.06651573e-04 -4.78949187e-05
 -6.64515579e-03 -6.45320069e-03 -6.40950950e-03  5.90940150e-05 -2.25717694e-05
  9.53497336e-06 -2.72919901e-03 -2.28413372e-04 -2.15355357e-04  1.24475184e-05
 -2.64395674e-05 -3.60252020e-06  2.26703637e-04  1.56593745e-04 -5.22659820e-06
  6.25736226e-05 -4.66054097e-03 -3.19435420e-03  1.04532216e-04 -1.63471854e-04
  1.53421761e-04 -7.63711069e-07  6.73786280e-05 -1.85532104e-05 -1.69541506e-05
  9.53994037e-05 -9.30091669e-04 -6.27124281e-04  1.96558681e-05 -6.92693104e-01
 -3.55331141e-02  2.69869312e-04 -4.47015539e-06  1.62406527e-05  1.53108948e-02
 -1.13124326e-03 -1.57236158e-03  1.16554226e-04  6.26859642e-03  6.47846521e-03
  6.23548015e-03  2.60736896e-05 -6.26729764e-07 -3.15324064e-05  2.61302691e-03
 -2.72227916e-04 -1.12552119e-04 -3.02057159e-06 -2.41215844e-07 -1.88442569e-06
 -2.56101985e-05 -1.83697504e-05  6.70403727e-07  4.81493741e-06  6.68409727e-04
  4.70500987e-04 -1.64395298e-05 -1.01375936e-04  1.02453308e-04 -2.14073663e-06
  4.28814111e-05 -1.16918982e-05 -1.18004893e-05  1.84745881e-05  1.49983141e-04
  1.15056683e-04 -4.77883898e-06 -8.00063537e-06  2.83768237e-03 -2.47835847e-05
  2.10154168e-03 -7.95688384e-06  2.83875700e-03  4.02018346e-06 -2.77475850e-03
  4.00143862e-06 -2.77600342e-03  2.20379260e-05 -2.03113487e-03  6.92585339e-01
  3.49989104e-02  2.34006880e-05  2.87561360e-06  1.01831008e-06 -1.23401174e-02
 -6.20009976e-04  1.07581510e-04 -4.84569055e-05 -6.48980983e-03 -6.40692476e-03
 -6.44811109e-03 -2.44456938e-05  1.01978627e-07 -6.99194692e-06 -4.30063940e-03
 -1.03343229e-03 -1.89520922e-06 -5.95997848e-05 -1.97018201e-03 -2.68633720e-04
  1.62214631e-05 -2.97324077e-05  4.21563540e-06  4.66665330e-03 -1.20777058e-03
  1.86567164e-03 -2.85412212e-04 -3.56585288e-04 -3.31524851e-04 -1.19101515e-04
 -4.45310720e-05 -1.07479430e-05  2.64140781e-05  7.12328764e-03 -6.05761146e-04
  8.95634402e-04 -1.36943634e-04  7.11400419e-01  3.59638636e-02 -1.80967678e-05
 -2.07579962e-05  1.38082009e-06 -1.27548711e-02  1.45384957e-04  6.59452495e-04
 -6.87797146e-05 -6.60100333e-03 -6.64171725e-03 -6.61786033e-03 -5.04974387e-05
  6.98403733e-06  3.06334708e-07 -4.37214491e-03  3.69457966e-04  9.68743915e-04
 -9.21181579e-05 -1.80550221e-05 -1.40879032e-04  2.20397925e-05 -3.08910108e-05
  4.86183581e-06  3.60460210e-04 -2.60839587e-04  3.55166388e-04 -5.66079104e-05
  4.35687784e-05  7.68877433e-05 -2.00263079e-04 -5.87125707e-05  2.34482921e-05
 -4.14938318e-05  1.37802096e-03 -3.90436373e-04  5.55838506e-04 -8.79481247e-05
 -1.48144585e-04  2.30734579e-03 -1.02150586e-04  2.59940887e-03 -1.48091419e-04
  2.30663601e-03 -1.48316925e-04  2.38258557e-03 -1.48247236e-04  2.38182599e-03
 -1.02776357e-04  2.65477410e-03  1.81940993e-02 -3.32466510e-02 -2.62096680e-02
  4.88118019e-03 -2.07056735e-03 -6.22628773e-03  2.60063568e-03  1.38104619e-02
 -1.46633695e-03 -7.00824036e-03  6.67654212e-04  1.20006871e-03  1.78035389e-03
 -7.54072999e-04  1.80968412e-04 -4.33009022e-02 -8.95065826e-03 -8.93689105e-03
  5.38866403e-04  1.19736775e-01 -2.32506606e-01 -1.02366326e-01  1.46901193e-01
 -2.30512541e-02 -8.14207843e-02  2.69099252e-02 -3.86175598e-02  6.05274027e-03
  5.55765459e-03 -8.55299861e-03  1.91063609e-02  2.20790241e-02 -3.52395395e-03
  5.09244193e-03  7.00600072e-02 -2.54051779e-02  3.64566629e-02 -5.71803923e-03
  1.81939184e-02 -3.32463056e-02  4.54962311e-03  2.62025124e-02 -2.78806172e-03
 -6.22601259e-03 -1.38847868e-02  2.38311116e-03 -1.08183544e-03  7.42297911e-04
 -7.04232638e-03  1.15948989e-03 -1.53955349e-03  1.45152788e-04  1.02650817e-03
 -4.32982379e-02  1.15187394e-02  5.25148688e-03  6.13130683e-05  1.93992450e-01
 -4.19431048e-01  9.22159530e-02 -1.32334817e-01  2.07587135e-02 -4.13024202e-01
  3.25950622e-02 -4.67756474e-02  7.33827786e-03  5.46764088e-03 -1.91417292e-03
  7.65790114e-03  1.15097324e-02 -1.50813226e-03  1.99111268e-03  2.00115774e-02
  5.07378424e-03 -7.28105336e-03  1.14312498e-03 -5.99705029e-03 -1.56287006e-03
 -8.11447091e-03  4.83245600e-03 -5.99744711e-03 -1.55964766e-03 -5.99699736e-03
 -1.56302894e-03 -5.99740930e-03 -1.55969463e-03 -8.11457380e-03  4.83219163e-03
  1.24811673e-01 -2.36749276e-01 -4.18676601e-02 -2.63374233e-02  6.75555709e-04
 -2.21330678e-01 -3.07240666e-03 -8.70107153e-03  8.41238637e-04 -1.39097733e-03
  7.70219603e-04  3.60547865e-04 -2.32252771e-03  1.57626733e-04 -1.93091471e-04
 -5.11240089e-02 -1.58488924e-02  5.67201637e-03 -1.57167449e-03  8.76919307e-02
 -1.76695776e-01  1.03816306e-01 -1.48979615e-01  2.32971612e-02 -1.27508627e-01
  2.12563158e-02 -3.05049660e-02  4.77205714e-03 -4.89047953e-03  4.13332834e-03
  6.50396426e-03 -1.39524838e-02  8.81431008e-04 -5.02673098e-04  8.66437220e-02
  8.98490204e-03 -1.28949026e-02  2.03350771e-03  1.24808047e-01 -2.36742418e-01
  3.93451253e-02  2.99567143e-02 -1.21855046e-03 -2.21323386e-01  9.24780938e-03
 -1.61100022e-04  5.53905726e-04 -8.08204997e-04  1.90344816e-04  3.57503720e-04
 -2.57208926e-03  2.24433823e-04 -1.30084953e-04 -5.11205762e-02  1.94457699e-04
  1.67921961e-02 -1.94587553e-03 -6.51803530e-02  1.48711625e-01  4.26320369e-05
 -6.08874555e-05 -8.19129208e-06  1.53279954e-01  6.31208950e-03 -9.05788728e-03
  1.41456266e-03 -2.35221818e-03 -3.30274506e-03  5.55694000e-05  1.49983129e-03
 -3.38521768e-04  5.46643821e-04 -5.57606628e-03 -7.96673477e-03  1.14329329e-02
 -1.79000032e-03 -7.83998555e-02 -4.10138863e-03 -6.42505251e-02 -8.29938275e-04
 -7.83909716e-02 -4.09142574e-03 -7.83980186e-02 -4.10119199e-03 -7.83886413e-02
 -4.09148632e-03 -6.42484007e-02 -8.29949504e-04  1.41361752e-01 -2.69703021e-01
  5.66235504e-03  1.09856424e-02 -9.47124883e-04 -2.91552694e-01 -1.71116646e-04
  4.66378284e-04 -5.30948579e-05  3.78894833e-03 -1.36301542e-03 -1.05062777e-03
  2.00426690e-03  8.67429361e-05  1.58794130e-04 -1.19110226e-01 -2.82449178e-02
 -1.95588462e-03 -1.38479134e-03 -6.19473004e-07  1.16424691e-06  1.51079577e-01
  1.04726479e-01 -3.52457418e-03  1.33689410e-06  8.80333027e-03  6.10269461e-03
 -2.05428029e-04 -9.96223801e-03  9.91038401e-03  5.19175963e-05  4.26758103e-03
 -1.15174694e-03 -1.08391805e-03 -9.98788111e-07 -4.28856768e-02 -2.97273759e-02
  1.00019371e-03 -1.41365014e-01  2.69709238e-01  1.22964292e-02  1.46333978e-03
  5.27560803e-04  2.91558792e-01  3.77929791e-04 -3.23040186e-04  4.79467375e-05
 -3.98800574e-04 -2.00938776e-03  1.03293450e-03 -3.45657218e-03  3.07517656e-04
  2.11504281e-04  1.19111428e-01 -1.16846185e-02 -2.57224730e-02  2.31632830e-03
  6.50170421e-07 -1.50875445e-06  4.26790882e-02  2.95844009e-02 -9.95635855e-04
 -1.69006771e-06  2.04816337e-02  1.41975508e-02 -4.77814881e-04 -5.26158469e-03
  5.23400430e-03  2.76079913e-05  2.25366403e-03 -6.12790470e-04 -5.75592184e-04
  1.05627924e-07  2.02766643e-03  1.40548839e-03 -4.71223032e-05 -9.43760105e-02
 -9.33576491e-03 -9.92606022e-02 -1.16972023e-02 -9.43802769e-02 -9.33356384e-03
  9.43779126e-02  9.33624297e-03  9.43833802e-02  9.33392461e-03  9.92623360e-02
  1.16974242e-02  5.06764648e-02 -9.75485839e-02  2.22378097e-01  3.15178346e-02
  9.01706062e-03 -1.41543493e-01  7.42883048e-02  8.70678856e-03  3.22386210e-03
  1.63706523e-02 -8.99430273e-03 -6.91079679e-03  3.81236544e-03  1.09310685e-03
  4.96817017e-04 -6.56176855e-02 -6.21237895e-03 -5.63554636e-03  3.06957365e-04
 -1.37295490e-01  3.04570299e-01 -4.76497088e-02  6.83770450e-02 -1.07064114e-02
  3.12281249e-01 -2.45333978e-02  3.52071432e-02 -5.51740921e-03 -8.95376298e-03
 -1.02257445e-02 -1.05900090e-02  1.96653863e-03 -1.22541598e-04  6.72542000e-05
  1.02521685e-01 -1.96284608e-02  2.81662459e-02 -4.41320797e-03  5.06762086e-02
 -9.75481942e-02 -1.07138607e-01 -1.96892085e-01  1.67047821e-02 -1.41542517e-01
 -3.40786782e-02 -6.64090626e-02  5.75214522e-03 -3.75781533e-03  1.10293077e-02
 -6.80574075e-03  1.24347187e-02 -1.23529407e-03 -1.69382849e-03 -6.56143150e-02
  7.46186632e-03  3.84243842e-03 -1.19262903e-05  7.52191570e-02 -1.71528433e-01
 -1.08530006e-01  1.55744926e-01 -2.44318608e-02 -2.51947445e-01 -4.83839931e-02
  6.94325769e-02 -1.08947583e-02  4.23068042e-03  1.02709956e-02 -2.40709218e-03
 -9.45855550e-03  1.56606118e-03 -2.29529003e-03 -3.24807638e-02  2.73740127e-03
 -3.92824325e-03  6.16644159e-04 -8.22428702e-02 -3.79015672e-02 -9.37997526e-02
 -4.16016986e-02 -8.22105617e-02 -3.78840341e-02 -8.22410171e-02 -3.79007685e-02
 -8.22109250e-02 -3.78842196e-02 -9.37966884e-02 -4.16004216e-02  1.38180741e-02
 -2.39310120e-02  2.18044835e-01 -1.51882089e-01  2.99645728e-02 -4.06718702e-02
  9.42942111e-02 -7.78661993e-02  1.43749274e-02  9.25436336e-03  8.11933631e-05
 -1.20383782e-02  2.27462047e-03  1.15672144e-03 -1.54651742e-03 -9.49755276e-02
 -1.06875984e-02 -6.61888864e-03  1.59841442e-04  8.54205640e-07 -1.98260835e-06
 -2.75392924e-01 -1.90913872e-01  6.27420470e-03 -3.20922474e-06 -7.66010512e-02
 -5.31062458e-02  1.72126283e-03 -8.48779305e-03  8.44326582e-03  4.46504060e-05
  3.63532861e-03 -9.92789599e-04 -9.30428736e-04  2.09203692e-06 -4.93757377e-02
 -3.42284464e-02  1.13553881e-03 -1.38182952e-02  2.39315411e-02 -6.67017495e-02
  2.56747856e-01 -3.38173300e-02  4.06715759e-02 -4.02949483e-02  1.15278203e-01
 -1.57806742e-02 -2.54648060e-03 -6.75798434e-03  1.20071469e-02 -5.14748787e-03
 -3.86988904e-04  2.25685465e-03  9.49735514e-02 -9.94594025e-03 -7.68375420e-03
  3.15868020e-04 -1.80073245e-06  3.96273055e-06 -2.12462291e-01 -1.47301921e-01
  4.84055006e-03  7.68124212e-06 -1.18158610e-01 -8.19185959e-02  2.69268710e-03
  1.56175902e-02 -1.55380655e-02 -7.98443268e-05 -6.68839785e-03  1.82435065e-03
  1.70116152e-03  1.41585152e-06 -7.75157851e-03 -5.37325015e-03  1.82952961e-04
 -1.04909637e-01 -5.92365553e-02  3.56265929e-02  2.34933870e-02 -1.04652220e-01
 -5.90709306e-02  1.04755927e-01  5.91304045e-02  1.04811430e-01  5.91804397e-02
 -3.56337782e-02 -2.34974402e-02 -1.94485601e-05  3.74361767e-05  1.48782511e-02
 -3.07991327e-02 -2.63629876e-01  5.67623052e-05  6.73874882e-03 -1.39758912e-02
 -1.19572554e-01 -1.68477717e-04 -2.55700915e-03  2.72974816e-03  9.11554514e-04
  1.51605606e-03 -1.24741142e-02  9.76423346e-05  2.61484416e-04 -5.14897792e-04
 -4.36123916e-03 -1.75384400e-05  3.76882710e-05  1.43825661e-02 -2.86750709e-02
 -2.46168473e-01  5.32756274e-05  6.25472977e-03 -1.25583159e-02 -1.08005545e-01
  8.74471624e-05  2.19739948e-04 -3.11328182e-04 -1.49894843e-04 -7.55930704e-04
  1.07979902e-03 -8.27046391e-05  1.59152412e-03 -3.15111517e-03 -2.72608343e-02
 -2.41161344e-06  7.54884938e-06  1.53937097e-02 -3.08109232e-02 -2.63594927e-01
  7.64576143e-06  7.00175973e-03 -1.39662624e-02 -1.19556722e-01 -1.13064395e-03
 -1.19188424e-03  2.32333614e-03  1.66292433e-03  1.12579997e-02 -5.75908526e-03
 -1.00245922e-05  2.62804970e-04 -5.13249220e-04 -4.36130212e-03  2.55290373e-05
 -6.01594270e-05  1.11573564e-02 -2.23009179e-02 -1.92590690e-01 -8.39054213e-05
  6.12907668e-03 -1.22472909e-02 -1.05754561e-01 -8.86894198e-04 -2.54301185e-03
  3.43196950e-03  1.75693599e-03  8.69431087e-03 -1.24119064e-02  2.00036436e-05
 -2.18541386e-04  4.53534111e-04  3.81578361e-03 -1.30958649e-01 -9.02955491e-02
  5.02352408e-05  1.79101142e-05  1.31095695e-01  9.03576359e-02 -1.31081372e-01
 -9.03658328e-02  1.30969193e-01  9.02844369e-02  8.70276212e-05  4.35353925e-05
  1.10138272e-02 -2.33530916e-02  6.99430783e-02  2.35480152e-01 -2.36084564e-02
 -3.35213370e-02  3.62377514e-02  1.13562035e-01 -1.12384604e-02  2.89103512e-03
 -9.28147281e-03  5.24209561e-03 -1.76262276e-03  3.78158885e-05  1.88023203e-03
 -5.89295299e-02 -9.91692865e-03  1.44684013e-02 -2.26650956e-03  1.68242725e-02
 -4.49696266e-02 -1.43519970e-01  2.05966431e-01 -3.24104077e-02 -7.01509482e-02
 -5.22253578e-02  7.49478528e-02 -1.18099317e-02 -7.94248101e-04  1.10817317e-03
  5.81551443e-03 -2.90709254e-03 -1.08203219e-04  4.80758302e-04  1.15892138e-01
 -8.06778316e-03  1.15797290e-02 -1.79640792e-03  1.10145842e-02 -2.33544159e-02
 -2.45669212e-01  1.66912729e-02 -1.62430101e-02 -3.35236613e-02 -1.19349350e-01
  5.70607312e-03 -7.60839161e-03 -8.87004900e-03  2.41868604e-03  5.30299010e-03
  3.27549410e-03 -1.33369164e-03  5.93784315e-04 -5.89321691e-02 -1.01389238e-02
  1.43138993e-02 -2.26159284e-03 -6.89619289e-02  1.49745411e-01  1.83898998e-01
 -2.63899208e-01  4.12882724e-02  3.01785297e-01  7.06972987e-02 -1.01451218e-01
  1.58546912e-02 -5.93001468e-03 -1.13998894e-02  2.67747173e-03  8.58728245e-03
 -1.59187995e-03  2.42929229e-03  5.53119860e-02  9.07428090e-03 -1.30219313e-02
  2.03624866e-03  4.04588037e-02  2.77005193e-02 -1.54220956e-01 -8.37518104e-02
  4.05432220e-02  2.77540624e-02  4.04596524e-02  2.77017503e-02  4.05314018e-02
  2.77462644e-02 -1.54216198e-01 -8.37487943e-02  2.80634175e-06 -1.32260642e-05
  1.85630916e-02 -3.75934872e-02 -3.23661882e-01  2.45093562e-05  9.10422884e-03
 -1.83889532e-02 -1.58392828e-01 -1.09961804e-03 -3.00003839e-03  4.09648606e-03
  2.13569326e-03  1.09715523e-02 -1.44788133e-02  1.88388160e-04  1.44251491e-03
 -2.82366730e-03 -2.43123681e-02  2.74494672e-07 -6.07541072e-07 -5.29293469e-05
 -3.10548762e-05  6.62274713e-07 -2.68756327e-06  9.57153956e-06  8.51382064e-06
 -1.09015029e-07 -1.18062627e-03  1.66442090e-03 -4.83610004e-04  9.14277480e-04
  1.19858669e-02  8.26496166e-03 -8.36526714e-06  9.20448257e-05  6.24354275e-05
 -1.90141800e-06 -3.53119249e-06  1.43335080e-05 -1.84828217e-02  3.76376848e-02
  3.23665579e-01 -2.00010205e-05 -9.03063052e-03  1.84344633e-02  1.58393223e-01
  1.01871143e-03  3.12812562e-03 -4.14390309e-03 -2.06285522e-03 -9.85652972e-03
  1.52481445e-02 -1.80492402e-04 -1.37206693e-03  2.87059325e-03  2.43111721e-02
 -6.72332643e-07  1.10862873e-06  2.98990632e-05  1.28558316e-05  7.25855116e-07
  4.10472393e-06  1.81061629e-05  9.85722390e-06  1.63349816e-07 -9.37621948e-05
  1.31443270e-04 -3.80690347e-05  7.23451156e-05  9.41472308e-04  6.49249537e-04
  2.17490363e-06 -7.35816071e-06 -5.40754144e-06  1.89040235e-07 -1.73756432e-01
 -1.29450516e-01 -1.53150756e-04 -1.09257847e-04  1.73880291e-01  1.29537591e-01
  1.73750310e-01  1.29445567e-01 -1.73891064e-01 -1.29546181e-01  1.68130043e-04
  1.19604293e-04  8.12009937e-03 -1.82745582e-02 -1.39357120e-01  2.04551333e-01
 -3.17830845e-02 -3.07611959e-02 -6.37869819e-02  1.08197449e-01 -1.62597883e-02
 -3.30984568e-03 -5.05755047e-03  1.13672675e-02 -1.13624327e-02  3.40675314e-04
  1.59235948e-03  4.62413326e-02  3.02908239e-03  2.44189263e-02 -2.66685711e-03
  1.21278227e-03  5.72196436e-03  1.61020151e-01 -2.31068659e-01  3.60437333e-02
  1.63670827e-02  5.63125670e-02 -8.08122020e-02  1.26011501e-02 -8.75483935e-03
  8.15847111e-03 -5.02232038e-03 -2.62963591e-02  2.84369568e-03 -3.34134187e-03
 -8.60056113e-02  1.95798028e-02 -2.80975283e-02  4.36840061e-03  8.11979758e-03
 -1.82737513e-02 -1.43659747e-01  2.01578916e-01 -3.16714154e-02 -3.07600397e-02
 -7.94486262e-02  9.73453275e-02 -1.58891866e-02 -1.13707077e-02  2.96027946e-03
  1.14099718e-02 -7.91055333e-03 -6.12379440e-04  7.02982712e-04  4.62389710e-02
 -2.40048058e-02  5.68143703e-03 -2.03569523e-03  3.74140531e-02 -7.06973845e-02
 -2.11742175e-01  3.03857363e-01 -4.79230749e-02 -2.05179067e-01 -8.57863576e-02
  1.23105350e-01 -1.94674308e-02  3.20275304e-03  9.51771372e-03 -6.55556808e-04
 -9.86305057e-03  1.43643213e-03 -1.99100355e-03 -6.14227955e-02 -1.71268496e-02
  2.45779021e-02 -3.86842460e-03  9.61919928e-02  7.65798221e-02 -1.14181339e-01
 -7.78970909e-02  9.60620826e-02  7.64556713e-02  9.62065673e-02  7.65911012e-02
  9.60518496e-02  7.64474284e-02 -1.14192702e-01 -7.79050545e-02  5.54108543e-03
 -1.23796979e-02 -1.46108471e-01 -2.87625797e-01  2.50227291e-02 -2.51843475e-02
 -7.93241108e-02 -1.43059312e-01  1.20707023e-02 -6.49550225e-03  1.69755299e-02
 -7.21673442e-03  1.25056506e-02 -1.38878367e-03 -2.58449711e-03  3.31131563e-02
 -4.60139114e-03 -4.04039821e-02  4.42909682e-03 -8.35304112e-07  1.59833578e-06
  1.77590451e-01  1.23113147e-01 -4.14601155e-03  2.72294101e-06  5.10431389e-02