Generated by Psi4
     FORCE                           RHF                       TESTBAS
Number of atoms                            I               15
Charge                                     I                0
Multiplicity                               I                1
Number of electrons                        I               42
Number of alpha electrons                  I               21
Number of beta electrons                   I               21
Number of basis functions                  I              115
Number of independent functions            I              115
Atomic numbers                             I   N=          15
           6           6           8           6           6           1
           1           1           1           1           1           1
           1           1           1
Nuclear charges                            R   N=          15
  6.00000000e+00  6.00000000e+00  8.00000000e+00  6.00000000e+00  6.00000000e+00
  1.00000000e+00  1.00000000e+00  1.00000000e+00  1.00000000e+00  1.00000000e+00
  1.00000000e+00  1.00000000e+00  1.00000000e+00  1.00000000e+00  1.00000000e+00
Current cartesian coordinates              R   N=          45
 -3.93497674e+00 -2.29418429e+00  4.17636853e-01 -1.07855688e+00 -2.20585062e+00
  1.22464215e-01 -2.98002015e-01  3.60519995e-01  2.88345757e-02  2.35496280e+00
  6.61690202e-01 -2.45844555e-01  2.96456070e+00  3.46816738e+00 -3.23861468e-01
  2.34954886e+00  4.39687947e+00  1.42103180e+00  2.00599713e+00  4.37872486e+00
 -1.91679656e+00  5.00610799e+00  3.75410741e+00 -5.35545284e-01 -4.51806229e+00
 -1.33974333e+00  2.15959773e+00 -4.58864078e+00 -4.25916841e+00  4.95127215e-01
 -4.86244810e+00 -1.35680555e+00 -1.17813860e+00  2.99287552e+00 -2.76675760e-01
 -1.99591360e+00  3.33699394e+00 -2.58489841e-01  1.34760290e+00 -4.90604370e-01
 -3.18498852e+00 -1.62275518e+00 -1.45628674e-01 -3.16791617e+00  1.72066505e+00
Integer atomic weights                     I   N=          15
          12          12          15          12          12           1
           1           1           1           1           1           1
           1           1           1
Real atomic weights                        R   N=          15
  1.20000000e+01  1.20000000e+01  1.59949146e+01  1.20000000e+01  1.20000000e+01
  1.00782503e+00  1.00782503e+00  1.00782503e+00  1.00782503e+00  1.00782503e+00
  1.00782503e+00  1.00782503e+00  1.00782503e+00  1.00782503e+00  1.00782503e+00
Number of primitive shells                 I              125
Number of contracted shells                I               60
Pure/Cartesian d shells                    I                1
Pure/Cartesian f shells                    I                1
Highest angular momentum                   I                2
Largest degree of contraction              I                6
Shell types                                I   N=          60
           0           0           1           0           1           2
           0           1           0           0           1           0
           1           2           0           1           0           0
           1           0           1           2           0           1
           0           0           1           0           1           2
           0           1           0           0           1           0
           1           2           0           1           0           0
           0           0           0           0           0           0
           0           0           0           0           0           0
           0           0           0           0           0           0
Number of primitives per shell             I   N=          60
           6           3           3           1           1           1
           1           1           6           3           3           1
           1           1           1           1           6           3
           3           1           1           1           1           1
           6           3           3           1           1           1
           1           1           6           3           3           1
           1           1           1           1           3           1
           3           1           3           1           3           1
           3           1           3           1           3           1
           3           1           3           1           3           1
Shell to atom map                          I   N=          60
           1           1           1           1           1           1
           1           1           2           2           2           2
           2           2           2           2           3           3
           3           3           3           3           3           3
           4           4           4           4           4           4
           4           4           5           5           5           5
           5           5           5           5           6           6
           7           7           8           8           9           9
          10          10          11          11          12          12
          13          13          14          14          15          15
Primitive exponents                        R   N=         125
  3.04752490e+03  4.57369510e+02  1.03948690e+02  2.92101550e+01  9.28666300e+00
  3.16392700e+00  7.86827240e+00  1.88128850e+00  5.44249300e-01  7.86827240e+00
  1.88128850e+00  5.44249300e-01  1.68714400e-01  1.68714400e-01  8.00000000e-01
  4.38000000e-02  4.38000000e-02  3.04752490e+03  4.57369510e+02  1.03948690e+02
  2.92101550e+01  9.28666300e+00  3.16392700e+00  7.86827240e+00  1.88128850e+00
  5.44249300e-01  7.86827240e+00  1.88128850e+00  5.44249300e-01  1.68714400e-01
  1.68714400e-01  8.00000000e-01  4.38000000e-02  4.38000000e-02  5.48467170e+03
  8.25234950e+02  1.88046960e+02  5.29645000e+01  1.68975700e+01  5.79963530e+00
  1.55396160e+01  3.59993360e+00  1.01376180e+00  1.55396160e+01  3.59993360e+00
  1.01376180e+00  2.70005800e-01  2.70005800e-01  8.00000000e-01  8.45000000e-02
  8.45000000e-02  3.04752490e+03  4.57369510e+02  1.03948690e+02  2.92101550e+01
  9.28666300e+00  3.16392700e+00  7.86827240e+00  1.88128850e+00  5.44249300e-01
  7.86827240e+00  1.88128850e+00  5.44249300e-01  1.68714400e-01  1.68714400e-01
  8.00000000e-01  4.38000000e-02  4.38000000e-02  3.04752490e+03  4.57369510e+02
  1.03948690e+02  2.92101550e+01  9.28666300e+00  3.16392700e+00  7.86827240e+00
  1.88128850e+00  5.44249300e-01  7.86827240e+00  1.88128850e+00  5.44249300e-01
  1.68714400e-01  1.68714400e-01  8.00000000e-01  4.38000000e-02  4.38000000e-02
  1.87311370e+01  2.82539370e+00  6.40121700e-01  1.61277800e-01  1.87311370e+01
  2.82539370e+00  6.40121700e-01  1.61277800e-01  1.87311370e+01  2.82539370e+00
  6.40121700e-01  1.61277800e-01  1.87311370e+01  2.82539370e+00  6.40121700e-01
  1.61277800e-01  1.87311370e+01  2.82539370e+00  6.40121700e-01  1.61277800e-01
  1.87311370e+01  2.82539370e+00  6.40121700e-01  1.61277800e-01  1.87311370e+01
  2.82539370e+00  6.40121700e-01  1.61277800e-01  1.87311370e+01  2.82539370e+00
  6.40121700e-01  1.61277800e-01  1.87311370e+01  2.82539370e+00  6.40121700e-01
  1.61277800e-01  1.87311370e+01  2.82539370e+00  6.40121700e-01  1.61277800e-01
Contraction coefficients                   R   N=         125
  1.83470016e-03  1.40373012e-02  6.88426061e-02  2.32184421e-01  4.67941342e-01
  3.62312032e-01 -1.19332409e-01 -1.60854212e-01  1.14345648e+00  6.89990956e-02
  3.16423980e-01  7.44308252e-01  1.00000000e+00  1.00000000e+00  1.00000000e+00
  1.00000000e+00  1.00000000e+00  1.83470016e-03  1.40373012e-02  6.88426061e-02
  2.32184421e-01  4.67941342e-01  3.62312032e-01 -1.19332409e-01 -1.60854212e-01
  1.14345648e+00  6.89990956e-02  3.16423980e-01  7.44308252e-01  1.00000000e+00
  1.00000000e+00  1.00000000e+00  1.00000000e+00  1.00000000e+00  1.83109981e-03
  1.39500985e-02  6.84450927e-02  2.32714275e-01  4.70192950e-01  3.58520862e-01
 -1.10777504e-01 -1.48026305e-01  1.13076704e+00  7.08742995e-02  3.39752798e-01
  7.27158595e-01  1.00000000e+00  1.00000000e+00  1.00000000e+00  1.00000000e+00
  1.00000000e+00  1.83470016e-03  1.40373012e-02  6.88426061e-02  2.32184421e-01
  4.67941342e-01  3.62312032e-01 -1.19332409e-01 -1.60854212e-01  1.14345648e+00
  6.89990956e-02  3.16423980e-01  7.44308252e-01  1.00000000e+00  1.00000000e+00
  1.00000000e+00  1.00000000e+00  1.00000000e+00  1.83470016e-03  1.40373012e-02
  6.88426061e-02  2.32184421e-01  4.67941342e-01  3.62312032e-01 -1.19332409e-01
 -1.60854212e-01  1.14345648e+00  6.89990956e-02  3.16423980e-01  7.44308252e-01
  1.00000000e+00  1.00000000e+00  1.00000000e+00  1.00000000e+00  1.00000000e+00
  3.34945995e-02  2.34726947e-01  8.13757318e-01  1.00000000e+00  3.34945995e-02
  2.34726947e-01  8.13757318e-01  1.00000000e+00  3.34945995e-02  2.34726947e-01
  8.13757318e-01  1.00000000e+00  3.34945995e-02  2.34726947e-01  8.13757318e-01
  1.00000000e+00  3.34945995e-02  2.34726947e-01  8.13757318e-01  1.00000000e+00
  3.34945995e-02  2.34726947e-01  8.13757318e-01  1.00000000e+00  3.34945995e-02
  2.34726947e-01  8.13757318e-01  1.00000000e+00  3.34945995e-02  2.34726947e-01
  8.13757318e-01  1.00000000e+00  3.34945995e-02  2.34726947e-01  8.13757318e-01
  1.00000000e+00  3.34945995e-02  2.34726947e-01  8.13757318e-01  1.00000000e+00
Coordinates of each shell                  R   N=         180
 -3.93497674e+00 -2.29418429e+00  4.17636853e-01 -3.93497674e+00 -2.29418429e+00
  4.17636853e-01 -3.93497674e+00 -2.29418429e+00  4.17636853e-01 -3.93497674e+00
 -2.29418429e+00  4.17636853e-01 -3.93497674e+00 -2.29418429e+00  4.17636853e-01
 -3.93497674e+00 -2.29418429e+00  4.17636853e-01 -3.93497674e+00 -2.29418429e+00
  4.17636853e-01 -3.93497674e+00 -2.29418429e+00  4.17636853e-01 -1.07855688e+00
 -2.20585062e+00  1.22464215e-01 -1.07855688e+00 -2.20585062e+00  1.22464215e-01
 -1.07855688e+00 -2.20585062e+00  1.22464215e-01 -1.07855688e+00 -2.20585062e+00
  1.22464215e-01 -1.07855688e+00 -2.20585062e+00  1.22464215e-01 -1.07855688e+00
 -2.20585062e+00  1.22464215e-01 -1.07855688e+00 -2.20585062e+00  1.22464215e-01
 -1.07855688e+00 -2.20585062e+00  1.22464215e-01 -2.98002015e-01  3.60519995e-01
  2.88345757e-02 -2.98002015e-01  3.60519995e-01  2.88345757e-02 -2.98002015e-01
  3.60519995e-01  2.88345757e-02 -2.98002015e-01  3.60519995e-01  2.88345757e-02
 -2.98002015e-01  3.60519995e-01  2.88345757e-02 -2.98002015e-01  3.60519995e-01
  2.88345757e-02 -2.98002015e-01  3.60519995e-01  2.88345757e-02 -2.98002015e-01
  3.60519995e-01  2.88345757e-02  2.35496280e+00  6.61690202e-01 -2.45844555e-01
  2.35496280e+00  6.61690202e-01 -2.45844555e-01  2.35496280e+00  6.61690202e-01
 -2.45844555e-01  2.35496280e+00  6.61690202e-01 -2.45844555e-01  2.35496280e+00
  6.61690202e-01 -2.45844555e-01  2.35496280e+00  6.61690202e-01 -2.45844555e-01
  2.35496280e+00  6.61690202e-01 -2.45844555e-01  2.35496280e+00  6.61690202e-01
 -2.45844555e-01  2.96456070e+00  3.46816738e+00 -3.23861468e-01  2.96456070e+00
  3.46816738e+00 -3.23861468e-01  2.96456070e+00  3.46816738e+00 -3.23861468e-01
  2.96456070e+00  3.46816738e+00 -3.23861468e-01  2.96456070e+00  3.46816738e+00
 -3.23861468e-01  2.96456070e+00  3.46816738e+00 -3.23861468e-01  2.96456070e+00
  3.46816738e+00 -3.23861468e-01  2.96456070e+00  3.46816738e+00 -3.23861468e-01
  2.34954886e+00  4.39687947e+00  1.42103180e+00  2.34954886e+00  4.39687947e+00
  1.42103180e+00  2.00599713e+00  4.37872486e+00 -1.91679656e+00  2.00599713e+00
  4.37872486e+00 -1.91679656e+00  5.00610799e+00  3.75410741e+00 -5.35545284e-01
  5.00610799e+00  3.75410741e+00 -5.35545284e-01 -4.51806229e+00 -1.33974333e+00
  2.15959773e+00 -4.51806229e+00 -1.33974333e+00  2.15959773e+00 -4.58864078e+00
 -4.25916841e+00  4.95127215e-01 -4.58864078e+00 -4.25916841e+00  4.95127215e-01
 -4.86244810e+00 -1.35680555e+00 -1.17813860e+00 -4.86244810e+00 -1.35680555e+00
 -1.17813860e+00  2.99287552e+00 -2.76675760e-01 -1.99591360e+00  2.99287552e+00
 -2.76675760e-01 -1.99591360e+00  3.33699394e+00 -2.58489841e-01  1.34760290e+00
  3.33699394e+00 -2.58489841e-01  1.34760290e+00 -4.90604370e-01 -3.18498852e+00
 -1.62275518e+00 -4.90604370e-01 -3.18498852e+00 -1.62275518e+00 -1.45628674e-01
 -3.16791617e+00  1.72066505e+00 -1.45628674e-01 -3.16791617e+00  1.72066505e+00
Total Energy                               R     -2.336738499863754e+02
Alpha Orbital Energies                     R   N=         115
 -1.91530831e+01 -1.02343755e+01 -1.02343716e+01 -1.01792988e+01 -1.01792959e+01
 -1.03358265e+00 -7.77266020e-01 -7.27530758e-01 -6.22195814e-01 -6.04748601e-01
 -4.96788316e-01 -4.89430251e-01 -4.43670315e-01 -4.32444175e-01 -3.97875088e-01
 -3.76779995e-01 -3.76483973e-01 -3.57020725e-01 -3.46844695e-01 -3.19771601e-01
 -2.59422693e-01  1.51003544e-02  2.46925563e-02  2.80519389e-02  3.85209141e-02
  4.94187785e-02  5.56308962e-02  6.70927646e-02  7.28913089e-02  8.86175023e-02
  8.95833830e-02  9.00384963e-02  1.06671673e-01  1.18402114e-01  1.30904086e-01
  1.54128340e-01  1.78517830e-01  1.80768254e-01  2.00949928e-01  2.06340364e-01
  2.16859968e-01  2.16980074e-01  2.23776109e-01  2.47588497e-01  2.47681254e-01
  2.50300338e-01  2.71874215e-01  2.80341133e-01  2.97240543e-01  2.98341966e-01
  3.22005592e-01  3.30061496e-01  3.54375182e-01  3.96481475e-01  4.06740477e-01
  6.15085828e-01  6.44952610e-01  6.54700699e-01  6.57787012e-01  6.61157403e-01
  6.97337758e-01  7.32302513e-01  7.45559082e-01  7.46983951e-01  7.58851461e-01
  8.25708010e-01  8.88075219e-01  9.38738718e-01  9.43792188e-01  9.49021043e-01
  9.70187841e-01  9.90560254e-01  1.01020852e+00  1.02662764e+00  1.10841102e+00
  1.11076421e+00  1.12901864e+00  1.13533868e+00  1.18922329e+00  1.23375621e+00
  1.26135995e+00  1.43066824e+00  1.46796281e+00  1.48278724e+00  1.49071054e+00
  1.51276136e+00  1.53873696e+00  1.68759640e+00  1.78311174e+00  1.88408135e+00
  1.92001833e+00  1.93605399e+00  1.95009852e+00  1.98076102e+00  2.06820328e+00
  2.08182169e+00  2.14560679e+00  2.17659632e+00  2.19356319e+00  2.26914911e+00
  2.27180461e+00  2.33309004e+00  2.33485772e+00  2.40890158e+00  2.49689688e+00
  2.50839014e+00  2.60899175e+00  2.75392039e+00  2.87747510e+00  2.99201063e+00
  4.20271680e+00  4.25033622e+00  4.27832218e+00  4.41756330e+00  4.52667433e+00
Alpha MO coefficients                      R   N=       13225
  1.57393939e-05  1.40130146e-04  1.72638143e-05 -5.45348985e-06 -1.75261555e-06
 -7.84320101e-05  1.30348987e-04 -6.68152134e-06 -1.34438783e-05 -1.91112490e-05
 -2.97859943e-05  2.98119933e-05 -7.11374388e-05  6.25945709e-06  7.69349631e-06
 -9.94794528e-04 -1.39577750e-04 -9.36663055e-05  1.47763288e-05 -4.39010862e-05
 -5.43613497e-05  8.55750616e-05  3.38422337e-04 -1.05540593e-05  1.56246926e-05
  2.00777600e-04 -4.05284277e-05 -2.04445289e-05 -2.30664661e-05  3.80678000e-04
 -7.62921118e-05  1.86920096e-04 -7.38041298e-06 -2.19773588e-05  2.04499470e-03
 -2.72283948e-04  7.90909790e-04  2.42230246e-05  9.92577695e-01  2.54179841e-02
  6.87795616e-04 -8.32101453e-04 -6.65040941e-05  1.46445573e-02 -5.71627433e-04
  6.91563229e-04  5.52718866e-05 -8.81300722e-03 -8.79078746e-03 -8.52100250e-03
 -7.79321089e-05  3.54974859e-05  9.65388335e-06 -6.72323750e-03 -6.82733685e-05
  8.25978715e-05  6.60178622e-06 -4.39010165e-05 -5.43806765e-05 -3.46647213e-04
 -2.25627261e-05  3.57974000e-05  1.56119369e-05  2.84235022e-06 -2.05823343e-04
  7.53444327e-07  4.20607189e-04 -6.75793784e-05 -7.16849614e-05  9.09630456e-05
 -5.96290879e-05 -9.41710992e-06  2.04484329e-03 -7.23622208e-04  4.13975213e-04
  7.20581847e-05  1.57399293e-05  1.40133019e-04  2.17055609e-06 -1.80593432e-05
 -1.25691720e-07 -7.84347531e-05 -1.73290068e-05 -1.30038167e-04  2.52028063e-06
 -5.09042299e-05  2.33933263e-06  2.94811433e-05 -6.42614211e-05  1.00115178e-05
  6.78690006e-06 -9.94742708e-04  1.17167244e-04  1.20745151e-04 -1.26106740e-05
  2.32947850e-05  1.48813887e-04  2.32882313e-05  1.48868577e-04  8.63111456e-06
  8.34998770e-05  2.32873439e-05  1.48862403e-04  8.63234273e-06  8.35033977e-05
  2.32922426e-05  1.48808418e-04  2.44887077e-05  1.55865936e-04  2.44911832e-05
  1.55971657e-04  2.44901564e-05  1.55955459e-04  2.44867130e-05  1.55865201e-04
  1.26781735e-03  7.98823445e-05 -7.18938578e-06  1.31789200e-04  3.28233059e-08
  1.48227527e-03  5.58141783e-04 -7.98043848e-04 -5.33919596e-05 -2.14130809e-04
  9.31257199e-06 -1.30123048e-05  5.84698954e-06  2.41815871e-05 -7.06835224e-07
 -4.56163747e-03 -1.40382667e-03 -1.17548764e-04  1.45519771e-04  6.03205207e-01
  3.05244764e-02  1.81069865e-04  5.32436501e-04 -2.14288818e-05 -1.31526012e-02
 -6.63148297e-04 -7.76228182e-04  7.26052115e-05 -5.28366398e-03 -5.17147893e-03
 -5.19084430e-03 -6.65359952e-05  1.14755092e-05  6.74891459e-06 -4.96994851e-03
 -3.65737293e-03 -2.55135049e-03  3.90105840e-04  9.87059163e-06 -4.04051430e-07
  1.23360152e-05  1.62681441e-06 -1.26086740e-06 -3.14179862e-04 -3.16128198e-04
 -1.83464003e-04  3.33845548e-05  4.08983634e-04 -3.37566380e-04 -1.05513409e-05
 -6.73039836e-05 -5.00511705e-05  8.85709067e-06 -1.72091914e-03 -5.29493464e-03
 -3.62431339e-03  5.63976699e-04 -7.89079948e-01 -3.98881253e-02  7.18962929e-04
  8.79888652e-05 -7.44901819e-05  1.75453220e-02 -1.37300002e-03 -2.44434512e-04
  1.42770400e-04  6.80213125e-03  6.87036201e-03  6.79107129e-03  7.52562535e-05
 -1.73456062e-06 -8.20240328e-06  7.27276969e-03 -3.49261316e-03 -2.85032833e-03
  3.74520896e-04 -1.62786828e-03 -2.21982544e-05  1.29937495e-04 -4.45316169e-05
 -1.31664152e-05 -2.63495947e-03 -4.88500019e-04  1.13995054e-03  4.42158988e-05
  3.06332259e-05  2.96358071e-04  3.67799969e-05  3.75150070e-05  5.14318222e-07
 -5.48537641e-06  2.74392414e-03 -4.95807784e-05 -9.13916397e-04  1.02151454e-05
  7.27179722e-05  5.44265431e-05  7.27675481e-05  5.44711680e-05  1.38620793e-04
  5.39226083e-04 -4.21596967e-05  9.24939449e-05 -1.13692291e-04 -4.66320059e-04
 -4.21037807e-05  9.24919966e-05 -2.35775466e-05 -2.83846338e-03 -2.34847865e-05
 -2.83900851e-03  1.84586133e-05  2.45852394e-03  1.85556105e-05  2.45784288e-03
  1.54149992e-03 -2.09201795e-04 -4.88196416e-05  3.57751385e-05  4.85069690e-06
  4.59161120e-03  1.85550806e-03  2.99428786e-04 -1.92827458e-04 -3.42550858e-04
 -1.39939066e-04 -1.02866888e-04  5.46646330e-05  2.85896730e-05 -5.40957393e-06
  6.31973169e-03  1.72207759e-03  8.83678614e-04 -1.81908891e-04  7.89068304e-01
  3.97686135e-02  1.64074652e-04  6.88273232e-04 -2.03782110e-05 -1.85005415e-02
  5.69238864e-04 -2.14569254e-03 -4.81565230e-05 -6.83107539e-03 -6.82548336e-03
 -6.79642735e-03  3.08879625e-05  4.04330540e-06 -3.00354389e-06 -9.44154896e-03
  3.87878197e-04 -1.78063615e-03 -3.15794337e-05 -7.39336948e-05  3.07731174e-06
 -3.06960824e-05  3.93505633e-05  2.96115818e-06  2.35301692e-03  2.58001355e-04
 -3.87658159e-04 -2.45860807e-05 -2.45720705e-04 -3.18435826e-04  1.08314564e-04
 -1.05335803e-04  4.30857931e-05  1.34133201e-05  1.28904854e-02  2.26748135e-03
 -4.08229635e-03 -2.12276941e-04  6.03189979e-01  3.03680941e-02 -5.33261298e-04
 -1.34230692e-05  5.48889752e-05 -1.44021699e-02  1.69344045e-03 -1.05680259e-03
 -1.68105636e-04 -5.21397117e-03 -5.22144973e-03 -5.19672147e-03  4.90475133e-05
  1.82054567e-06 -4.84724087e-06 -7.80720656e-03  7.81616549e-04 -1.51030973e-03
 -7.16587309e-05  1.15496629e-03 -2.22829955e-04  8.33150448e-06  4.46850521e-05
 -1.10951722e-06  4.04196998e-03 -7.88504608e-04 -1.53340556e-03  8.93999575e-05
 -1.25750991e-04 -2.87664779e-04 -9.42964655e-05  1.90760420e-05  3.66568046e-06
 -7.32501863e-07  7.29531330e-03 -1.23602967e-03 -1.84421998e-03  1.36994784e-04
 -1.07005143e-04 -5.52659344e-04 -1.06937440e-04 -5.53027655e-04 -7.65259534e-05
 -2.05951692e-04 -1.22287100e-04 -5.47957124e-04 -1.10211636e-04 -3.40196932e-04
 -1.22331887e-04 -5.47589159e-04  1.59850182e-05  1.07204217e-03  1.60328391e-05
  1.07130807e-03  2.16296068e-05  1.77857929e-03  2.16145594e-05  1.77910356e-03
  4.88767323e-01  2.48642789e-02  1.16941801e-04  4.99830875e-05 -1.23556607e-05
 -9.97624401e-03 -1.16474768e-03 -3.98102086e-04  1.22454402e-04 -4.53211411e-03
 -4.40589582e-03 -4.41265653e-03  7.42095641e-06  1.43546930e-05 -7.85462660e-07
 -1.05555623e-02 -2.54675221e-03 -1.69917251e-04  2.63980840e-04 -1.06495397e-03
  4.76885220e-05  8.22550755e-05 -1.46966403e-05 -8.37850488e-06  8.70729477e-04
 -1.92598646e-03 -7.90161382e-04  2.02554642e-04 -7.85769872e-05 -6.22854003e-05
  3.91299314e-05 -5.19202651e-05  1.44197164e-05  5.97213486e-06  5.78407943e-03
 -4.93032006e-03 -8.53135353e-04  5.12355774e-04 -3.74775792e-06 -9.20625122e-06
  6.44835369e-05  7.73648985e-05 -7.04279170e-06  2.60440607e-04 -3.03049067e-04
 -4.19349799e-04  3.33249432e-05 -3.78283207e-05 -2.07465577e-06  1.67261252e-05
 -1.43763668e-05  6.60741704e-06  1.65274307e-06  2.26757816e-04 -1.77048921e-03
 -1.77001343e-03  1.91874911e-04  1.90847917e-03  1.59587275e-04  2.14940298e-05
  1.42656795e-04 -2.97577689e-06 -3.25936800e-03 -1.05657290e-03 -2.55358543e-03
  1.22598695e-04  1.27654950e-04  2.16075091e-04  7.59204647e-06  5.80951734e-05
 -1.47497858e-05 -7.27827170e-06 -7.66199585e-03 -1.92315251e-03 -5.24889987e-03
  2.25934420e-04 -8.64351810e-01 -4.38706671e-02  7.39459472e-05  1.39467104e-04
 -8.40053630e-06  1.70034326e-02 -8.35197456e-04 -1.48802142e-03  9.42316680e-05
  7.83593288e-03  8.02130793e-03  7.85076772e-03  3.99498457e-05  1.54887587e-06
 -5.18355927e-06  1.28024150e-02 -7.56980204e-04 -2.93048266e-03  9.41391450e-05
  7.46196456e-05 -3.17010695e-03  7.46329913e-05 -3.16987601e-03  1.44969372e-04
 -2.76124056e-03 -3.03403682e-05  1.76869619e-03 -8.07397592e-05  1.49477387e-03
 -3.03297317e-05  1.76903816e-03  1.06808908e-04 -7.83117460e-06  1.06899413e-04
 -8.10583248e-06 -1.31932125e-05 -8.66833258e-05 -1.30651352e-05 -8.68762602e-05
  8.64330109e-01  4.37754938e-02  9.64477884e-05  9.10265003e-06 -9.99696100e-06
 -1.64024298e-02 -1.18360339e-03 -4.10529897e-04  1.24151566e-04 -8.03599107e-03
 -7.86497009e-03 -7.89886429e-03 -1.01790786e-05  1.65605845e-05  8.57649773e-07
 -7.28950796e-03 -1.59540864e-03 -1.27382867e-04  1.65249496e-04 -1.93196119e-03
 -3.88867992e-04  1.41560919e-04  1.49392028e-05 -1.46990085e-05  4.87556684e-03
 -2.01868581e-03  1.95459088e-04  2.07442533e-04 -3.13737184e-04 -1.16894463e-04
 -8.18285017e-05  1.61468447e-05  2.78496661e-05 -1.44216215e-06  5.24907014e-03
 -2.44649521e-03 -4.03311787e-04  2.54504288e-04  1.34994446e-05  3.31551912e-05
  6.25048515e-05 -3.24896520e-05 -6.26658029e-06 -9.38160145e-04 -3.99540837e-04
  2.65198429e-04  3.97452567e-05  7.75097491e-05  6.68268143e-05 -6.08513889e-05
  6.45119397e-05 -1.70162649e-05 -7.43804231e-06 -8.16782411e-04 -1.04422445e-03
  1.77368432e-04  1.06686264e-04 -1.10665304e-03 -3.57816905e-04 -3.43772615e-05
 -7.42470927e-05  3.96770886e-06  3.72919697e-03 -4.27149305e-04  8.33741400e-04
  3.92270439e-05 -6.10522138e-05 -2.37106555e-04 -8.85467143e-05  4.41953885e-06
 -3.32368859e-06  4.93473884e-07  1.51664808e-03 -1.73738499e-04 -4.22554669e-04
  1.98231750e-05  4.88728953e-01  2.46959045e-02  1.34665605e-05 -2.54063966e-05
 -1.26270390e-06 -8.91334795e-03  2.19204902e-04  3.82169350e-04 -2.44876907e-05
 -4.47552619e-03 -4.54403666e-03 -4.49343372e-03 -2.86855401e-05 -1.99924254e-06
  3.26332882e-06 -8.05366139e-04  3.10964893e-05  4.97389929e-05 -3.29458596e-06
 -6.52179454e-05  1.83825260e-03 -6.52175513e-05  1.83848351e-03 -8.43751467e-05
  1.69061939e-03 -9.43563665e-05  3.20937702e-03 -1.47032267e-04  2.87204637e-03
 -9.43534295e-05  3.20927306e-03 -1.52208209e-04  1.81610221e-04 -1.52129841e-04
  1.81571652e-04 -1.85460883e-04  1.59762271e-04 -1.85488494e-04  1.59663727e-04
  1.40381440e-02 -2.28645750e-02 -1.88335313e-02 -6.47885886e-03  1.97614170e-03
 -2.87493058e-02 -9.04214178e-03 -6.73809965e-03  9.67060247e-04 -4.35729426e-03
  8.53778171e-04  7.44538481e-04 -1.61824195e-03  6.22748131e-04  1.66654925e-04
 -1.56231153e-02 -2.56944953e-03  6.31751111e-03  2.33115508e-04  6.99959794e-02
 -1.33201355e-01 -3.25933776e-02 -8.95143074e-02  3.81749958e-03 -4.23442494e-02
 -7.17814816e-03  9.55553649e-03  6.92684485e-04  4.87494636e-03 -1.44448320e-02
  6.88830141e-03 -8.98311756e-03  2.88864371e-04  1.05236581e-03  4.28285760e-03
 -1.12696511e-02 -1.55589443e-02  1.24255575e-03  1.97326060e-01 -4.31055162e-01
 -6.50927283e-02  7.87514966e-02  6.29398137e-03 -4.45063751e-01 -3.65748612e-02
  4.42483247e-02  3.53653855e-03 -6.13452516e-03 -5.16897435e-03  1.20711391e-02
 -3.56482940e-03  2.20641930e-03  4.71248336e-04  3.50834455e-02  3.45420596e-03
 -4.17857436e-03 -3.34018779e-04  6.99945376e-02 -1.33198605e-01  9.35151531e-02
  1.58083961e-02 -9.70819756e-03 -4.23433196e-02 -8.03033395e-03  8.84436106e-03
  7.77526390e-04 -1.63718738e-02  7.02253257e-03  6.66758148e-03 -4.38756030e-03
  2.79123634e-03  4.50493750e-04  4.28292704e-03  1.72799200e-02  8.28390672e-03
 -1.82376403e-03  1.40381624e-02 -2.28646422e-02  9.78627865e-03  1.74240923e-02
 -1.10189718e-03 -2.87497555e-02  8.24615362e-03  7.70107156e-03 -8.90430178e-04
  1.76278351e-04 -3.72684875e-03  7.91650059e-04 -2.59869458e-03  8.83773278e-05
  2.95854150e-04 -1.56202002e-02 -5.70797443e-03  3.69585245e-03  5.67006983e-04
 -4.90174976e-03  1.33495986e-03 -4.90196050e-03  1.33528214e-03 -3.59295842e-03
  3.40257888e-04 -4.90194183e-03  1.33543166e-03 -3.59298782e-03  3.40126630e-04
 -4.90170841e-03  1.33502487e-03 -2.43728994e-02  9.85879619e-04 -2.43716092e-02
  9.87558421e-04 -2.43719348e-02  9.87617858e-04 -2.43733803e-02  9.86175200e-04
  9.84271940e-02 -1.86457181e-01 -4.89803739e-02 -3.03565191e-03  5.06933591e-03
 -1.66437154e-01 -5.54538512e-03 -8.56183577e-04  5.77731636e-04 -3.98989702e-03
  1.47075125e-03  1.38368821e-03 -2.52973482e-04  6.48479791e-04  2.60005903e-05
 -6.99124544e-02 -1.71441785e-02  4.35951107e-03  1.74823897e-03  1.11046154e-01
 -2.17883118e-01  4.81352876e-02 -1.60674890e-02 -4.88247038e-03 -1.80992284e-01
  2.60672171e-03  8.01383591e-03 -3.09833880e-04  1.73129252e-05  3.49773379e-04
  3.43969380e-03  1.38692992e-03  4.04907849e-04 -1.24400064e-04 -3.23986938e-02
 -4.42535223e-02 -2.97268776e-02  4.71250927e-03  6.06417629e-07 -1.48178101e-06
  1.27360992e-01  1.06368112e-01 -1.36665163e-02 -1.43096224e-06  5.63236633e-02
  4.70396070e-02 -6.04409904e-03  1.07170739e-02 -1.08281231e-02  1.11185072e-04
 -2.31793274e-03 -1.26218720e-03  3.03464066e-04 -2.74505159e-07 -2.08997722e-02
 -1.74545338e-02  2.24258157e-03 -1.11049038e-01  2.17888793e-01 -6.89471833e-03
  5.05128242e-02  4.37322936e-04  1.80997154e-01  8.31544542e-03  1.10794602e-03
 -8.61741419e-04 -8.00537962e-04  4.41552434e-04 -3.44794454e-03 -1.21773658e-03
 -3.11615955e-04  1.00680135e-04  3.23992116e-02 -3.71800633e-02 -3.82837325e-02
  4.02932095e-03 -9.84310926e-02  1.86464632e-01 -1.19411741e-02 -4.78483742e-02
  1.48983738e-03  1.66443969e-01 -1.85298674e-03 -5.32371603e-03  2.20939357e-04
 -1.20882150e-03  3.78203469e-03 -1.43786027e-03  1.37716368e-03 -3.52952132e-05
 -1.74646981e-04  6.99124929e-02  1.12357630e-03 -1.77404774e-02 -1.74412490e-05
  5.43528123e-02  1.51168975e-03  5.43524928e-02  1.51254149e-03  5.43843118e-02
  1.05168541e-03 -5.43506844e-02 -1.51251408e-03 -5.43823910e-02 -1.05156386e-03
 -5.43506882e-02 -1.51152067e-03  5.84589330e-02 -6.67645151e-04  5.84610555e-02
 -6.68467783e-04 -5.84592122e-02  6.68748845e-04 -5.84576309e-02  6.67788243e-04
  1.24571714e-01 -2.38080539e-01 -2.38760551e-02  1.09955136e-02  2.40735594e-03
 -2.24797119e-01  2.51938901e-03  7.40674875e-03 -2.97817408e-04  2.66038100e-04
  1.11228947e-04  4.59953249e-04  1.08999351e-03  1.77024010e-05 -1.10366115e-04
 -6.80456516e-02 -1.69076040e-02 -4.28185663e-04  1.74646199e-03  6.38932683e-02
 -1.25674476e-01  8.54918054e-02  7.17435912e-02 -9.18706482e-03 -1.17899845e-01
  1.32704561e-02  1.56233792e-02 -1.44922916e-03 -7.85603473e-03  1.24945586e-02
 -1.21727214e-03  5.12813144e-03  7.72720368e-04 -6.09377817e-04  5.00280920e-02
 -1.50332770e-02  1.66546740e-03  1.54291111e-03 -6.16512518e-02  1.40549452e-01
  1.04026252e-02 -1.25818401e-02 -1.00533514e-03  1.80211395e-01  6.47122593e-03
 -7.82720428e-03 -6.25502347e-04 -3.48854165e-03 -2.73195723e-03 -1.85604676e-03
 -2.38597772e-03  2.09191636e-04  2.51312036e-04  7.05112451e-03 -1.39076292e-03
  1.68159753e-03  1.34389440e-04  6.38908117e-02 -1.25669769e-01 -8.58254277e-02
 -7.13371755e-02  9.22167837e-03 -1.17894826e-01 -1.77105211e-02 -1.02509891e-02
  1.87901014e-03  1.32676124e-02 -8.84838908e-03 -9.97887181e-04  5.59419961e-04
 -1.71641562e-03 -9.16906481e-06  5.00244275e-02  1.12249457e-03  1.51560983e-02
 -1.98242510e-04  1.24567570e-01 -2.38072661e-01 -6.38015739e-03  2.56092889e-02
  5.17015187e-04 -2.24790109e-01 -7.70525764e-03 -1.13195756e-03  7.99136935e-04
  4.58117171e-04 -8.28155569e-05  4.62036172e-04  1.04864132e-03 -5.29849830e-06
 -1.04459440e-04 -6.80364178e-02  3.51556757e-03  1.66271709e-02 -4.52167881e-04
 -7.56152724e-02 -6.71350366e-03 -7.56150567e-02 -6.71328045e-03 -8.27345983e-02
 -6.59701913e-03 -7.56181252e-02 -6.71348189e-03 -8.27377992e-02 -6.59713464e-03
 -7.56181033e-02 -6.71381146e-03 -4.36012740e-02 -4.88666021e-03 -4.36003477e-02
 -4.88746746e-03 -4.36023076e-02 -4.88789347e-03 -4.36029674e-02 -4.88680921e-03
  9.99297805e-02 -1.93836721e-01  9.44292470e-02  1.38388371e-02 -9.81650023e-03
 -2.19377006e-01  3.08164148e-02  8.99600010e-03 -3.22661060e-03  1.10824954e-02
 -4.48306073e-03 -3.64354782e-03  7.54930362e-04 -1.77748803e-03 -7.40063309e-05
 -1.35789091e-01 -3.17127482e-02 -4.70630115e-03  3.29746578e-03 -8.58860064e-02
  1.76616294e-01  8.08787079e-02  3.43316540e-02 -8.53261967e-03  1.81124169e-01
  2.40156227e-02 -4.33339958e-03 -2.45955945e-03 -1.50531155e-02  6.62548553e-03
  8.52369725e-04 -2.32509056e-03  1.92674980e-03  2.06079229e-04  1.73545626e-01
 -2.67607358e-02  2.00380057e-02  2.65718468e-03  1.89666678e-06 -4.29686855e-06