Generated by Psi4
     FORCE                           RHF                       TESTBAS
Number of atoms                            I                2
Charge                                     I                0
Multiplicity                               I                1
Number of electrons                        I               18
Number of alpha electrons                  I                9
Number of beta electrons                   I                9
Number of basis functions                  I               25
Number of independent functions            I               25
Atomic numbers                             I   N=           2
          17           1
Nuclear charges                            R   N=           2
  1.70000000e+01  1.00000000e+00
Current cartesian coordinates              R   N=           6
 2.95067337e-193-1.83480596e-194 -6.83151259e-02 2.95067337e-193-1.83480596e-194
  2.37035348e+00
Integer atomic weights                     I   N=           2
          34           1
Real atomic weights                        R   N=           2
  3.49688527e+01  1.00782503e+00
Number of primitive shells                 I               33
Number of contracted shells                I               12
Pure/Cartesian d shells                    I                1
Pure/Cartesian f shells                    I                1
Highest angular momentum                   I                2
Largest degree of contraction              I                6
Shell types                                I   N=          12
           0           0           1           0           1           0
           1           2           0           1           0           0
Number of primitives per shell             I   N=          12
           6           6           6           3           3           1
           1           1           1           1           3           1
Shell to atom map                          I   N=          12
           1           1           1           1           1           1
           1           1           1           1           2           2
Primitive exponents                        R   N=          33
  2.51801000e+04  3.78035000e+03  8.60474000e+02  2.42145000e+02  7.73349000e+01
  2.62470000e+01  4.91765000e+02  1.16984000e+02  3.74153000e+01  1.37834000e+01
  5.45215000e+00  2.22588000e+00  4.91765000e+02  1.16984000e+02  3.74153000e+01
  1.37834000e+01  5.45215000e+00  2.22588000e+00  3.18649000e+00  1.14427000e+00
  4.20377000e-01  3.18649000e+00  1.14427000e+00  4.20377000e-01  1.42657000e-01
  1.42657000e-01  7.50000000e-01  4.83000000e-02  4.83000000e-02  1.87311370e+01
  2.82539370e+00  6.40121700e-01  1.61277800e-01
Contraction coefficients                   R   N=          33
  1.83300031e-03  1.40340024e-02  6.90970118e-02  2.37452040e-01  4.83034082e-01
  3.39856058e-01 -2.29740199e-03 -3.07140266e-02 -1.12528097e-01  4.50160390e-02
  5.89353510e-01  4.65206403e-01  3.98940055e-03  3.03180042e-02  1.29880018e-01
  3.27951045e-01  4.53527062e-01  2.52154035e-01 -2.51831288e-01  6.15893150e-02
  1.06018542e+00 -1.42990127e-02  3.23572288e-01  7.43507661e-01  1.00000000e+00
  1.00000000e+00  1.00000000e+00  1.00000000e+00  1.00000000e+00  3.34945995e-02
  2.34726947e-01  8.13757318e-01  1.00000000e+00
Coordinates of each shell                  R   N=          36
 2.95067337e-193-1.83480596e-194 -6.83151259e-02 2.95067337e-193-1.83480596e-194
 -6.83151259e-02 2.95067337e-193-1.83480596e-194 -6.83151259e-02 2.95067337e-193
-1.83480596e-194 -6.83151259e-02 2.95067337e-193-1.83480596e-194 -6.83151259e-02
 2.95067337e-193-1.83480596e-194 -6.83151259e-02 2.95067337e-193-1.83480596e-194
 -6.83151259e-02 2.95067337e-193-1.83480596e-194 -6.83151259e-02 2.95067337e-193
-1.83480596e-194 -6.83151259e-02 2.95067337e-193-1.83480596e-194 -6.83151259e-02
 2.95067337e-193-1.83480596e-194  2.37035348e+00 2.95067337e-193-1.83480596e-194
  2.37035348e+00
Total Energy                               R     -4.607980088340078e+02
Alpha Orbital Energies                     R   N=          25
 -1.01563169e+02 -9.48027031e+00 -7.24449686e+00 -7.23411265e+00 -7.23411265e+00
 -8.55009563e-01 -4.81533593e-01 -3.37465535e-01 -3.37465535e-01 -1.73707621e-02
  6.15341405e-02  6.96233421e-02  7.59729420e-02  7.59729420e-02  5.37686594e-01
  5.90173689e-01  5.99303867e-01  5.99303867e-01  7.16176040e-01  8.27665385e-01
  8.27665385e-01  8.57886782e-01  8.57886832e-01  1.22126964e+00  4.22995282e+00
Alpha MO coefficients                      R   N=         625
  9.95996792e-01  1.51483980e-02  0.00000000e+00  0.00000000e+00  5.21323960e-05
 -2.10646910e-02  0.00000000e+00  0.00000000e+00 -2.20147424e-05  1.93204136e-03
  0.00000000e+00  0.00000000e+00  5.29721021e-06  7.51540786e-03  7.51540786e-03
  7.50609222e-03  0.00000000e+00  0.00000000e+00  0.00000000e+00 -2.80169395e-04
  0.00000000e+00  0.00000000e+00  4.23614719e-06  3.93209084e-05 -2.65101215e-05
  2.84625580e-01 -1.02238270e+00  0.00000000e+00  0.00000000e+00 -6.42425634e-03
 -7.51062932e-02  0.00000000e+00  0.00000000e+00 -7.34455086e-04  1.81496285e-02
  0.00000000e+00  0.00000000e+00  7.94021629e-04  1.62968933e-02  1.62968933e-02
  1.55797361e-02  0.00000000e+00  0.00000000e+00  0.00000000e+00 -4.38345410e-03
  0.00000000e+00  0.00000000e+00  1.98408830e-04  6.41535422e-04 -1.59319365e-03
  1.90344607e-03 -7.01506727e-03  0.00000000e+00  0.00000000e+00  9.90432180e-01
  2.35450398e-04  0.00000000e+00  0.00000000e+00  3.07610794e-02 -9.29880965e-04
  0.00000000e+00  0.00000000e+00 -1.23429968e-02 -3.40895840e-04 -3.40895840e-04
  8.84928258e-04  0.00000000e+00  0.00000000e+00  0.00000000e+00 -9.77524111e-04
  0.00000000e+00  0.00000000e+00  3.34679925e-03 -1.74993021e-03  3.40717743e-03
  0.00000000e+00  0.00000000e+00  5.01347987e-04  9.90912716e-01  0.00000000e+00
  0.00000000e+00  1.48170620e-05  2.92858764e-02  0.00000000e+00  0.00000000e+00
 -5.49661765e-06 -1.08640475e-02  0.00000000e+00  0.00000000e+00  0.00000000e+00
  0.00000000e+00  0.00000000e+00  2.21771179e-07  4.38330037e-04  0.00000000e+00
  1.94290436e-06  3.84014434e-03  0.00000000e+00  0.00000000e+00  0.00000000e+00
  0.00000000e+00  0.00000000e+00  9.90912716e-01 -5.01347987e-04  0.00000000e+00
  0.00000000e+00  2.92858764e-02 -1.48170620e-05  0.00000000e+00  0.00000000e+00
 -1.08640475e-02  5.49661765e-06  0.00000000e+00  0.00000000e+00  0.00000000e+00
  0.00000000e+00  0.00000000e+00  4.38330037e-04 -2.21771180e-07  0.00000000e+00
  3.84014434e-03 -1.94290436e-06  0.00000000e+00  0.00000000e+00  0.00000000e+00
  8.08602526e-02 -3.64027289e-01  0.00000000e+00  0.00000000e+00 -4.77412707e-02
  7.26803693e-01  0.00000000e+00  0.00000000e+00  1.15873293e-01  2.83106691e-01
  0.00000000e+00  0.00000000e+00  1.72071956e-02 -2.06996828e-02 -2.06996828e-02
  3.07119673e-02  0.00000000e+00  0.00000000e+00  0.00000000e+00 -8.27275933e-03
  0.00000000e+00  0.00000000e+00 -2.16151624e-03  1.55065246e-01  4.36835098e-02
  2.77655889e-02 -1.26597607e-01  0.00000000e+00  0.00000000e+00  2.33220530e-01
  2.74708471e-01  0.00000000e+00  0.00000000e+00 -5.84777474e-01  2.21442802e-01
  0.00000000e+00  0.00000000e+00 -1.66890697e-01  1.92188001e-02  1.92188001e-02
 -6.60657413e-02  0.00000000e+00  0.00000000e+00  0.00000000e+00  1.96927936e-02
  0.00000000e+00  0.00000000e+00 -5.35903752e-03 -2.86949992e-01 -2.43719331e-01
  0.00000000e+00  0.00000000e+00  2.86234465e-01  3.06217831e-04  0.00000000e+00
  0.00000000e+00 -7.36591018e-01 -7.88015881e-04  0.00000000e+00  0.00000000e+00
 -3.74365145e-01 -4.00501327e-04  0.00000000e+00  0.00000000e+00  0.00000000e+00
  0.00000000e+00  0.00000000e+00 -1.94277482e-02 -2.07840901e-05  0.00000000e+00
 -4.66969064e-02 -4.99570358e-05  0.00000000e+00  0.00000000e+00  0.00000000e+00
  0.00000000e+00  0.00000000e+00 -3.06217831e-04  2.86234465e-01  0.00000000e+00
  0.00000000e+00  7.88015881e-04 -7.36591018e-01  0.00000000e+00  0.00000000e+00
  4.00501327e-04 -3.74365145e-01  0.00000000e+00  0.00000000e+00  0.00000000e+00
  0.00000000e+00  0.00000000e+00  2.07840901e-05 -1.94277482e-02  0.00000000e+00
  4.99570358e-05 -4.66969064e-02  0.00000000e+00  0.00000000e+00  0.00000000e+00
  2.58015518e-02 -1.28493553e-01  0.00000000e+00  0.00000000e+00 -1.34973884e-01
  2.48453347e-01  0.00000000e+00  0.00000000e+00  3.71608011e-01  9.54424897e-01
  0.00000000e+00  0.00000000e+00  5.83260935e-01  7.49746174e-03  7.49746174e-03
 -5.74790723e-02  0.00000000e+00  0.00000000e+00  0.00000000e+00 -8.98053640e-01
  0.00000000e+00  0.00000000e+00 -2.35558506e-01 -1.81653402e-01 -8.34622953e-01
  7.05725288e-03 -2.92463091e-02  0.00000000e+00  0.00000000e+00  1.22322673e-01
  9.03897650e-02  0.00000000e+00  0.00000000e+00 -3.25695148e-01  1.22897487e-01
  0.00000000e+00  0.00000000e+00 -7.87257849e-01 -5.13381240e-02 -5.13381240e-02
  8.18198071e-02  0.00000000e+00  0.00000000e+00  0.00000000e+00 -1.36847407e+00
  0.00000000e+00  0.00000000e+00  3.35661406e-01  1.80532202e-01  1.12757915e+00
  8.91684764e-03 -4.43675652e-02  0.00000000e+00  0.00000000e+00 -5.11866202e-03
  8.96968088e-02  0.00000000e+00  0.00000000e+00  1.64711348e-02  3.08158014e-01
  0.00000000e+00  0.00000000e+00  1.41085718e-01  4.56153773e-02  4.56153773e-02
 -1.09977036e-01  0.00000000e+00  0.00000000e+00  0.00000000e+00  3.68639669e-01
  0.00000000e+00  0.00000000e+00  1.20999464e+00 -1.89304472e-01 -9.40290693e-01
  0.00000000e+00  0.00000000e+00 -9.57438534e-06  9.21049538e-02  0.00000000e+00
  0.00000000e+00  2.51403325e-05 -2.41848336e-01  0.00000000e+00  0.00000000e+00
  4.77320385e-05 -4.59179054e-01  0.00000000e+00  0.00000000e+00  0.00000000e+00
  0.00000000e+00  0.00000000e+00  6.95854038e-07 -6.69406982e-03  0.00000000e+00
 -1.29603721e-04  1.24677922e+00  0.00000000e+00  0.00000000e+00  0.00000000e+00
  0.00000000e+00  0.00000000e+00  9.21049538e-02  9.57438534e-06  0.00000000e+00
  0.00000000e+00 -2.41848336e-01 -2.51403325e-05  0.00000000e+00  0.00000000e+00
 -4.59179054e-01 -4.77320385e-05  0.00000000e+00  0.00000000e+00  0.00000000e+00
  0.00000000e+00  0.00000000e+00 -6.69406982e-03 -6.95854038e-07  0.00000000e+00
  1.24677922e+00  1.29603721e-04  0.00000000e+00  0.00000000e+00  0.00000000e+00
  4.76276429e-02 -1.10142179e-02  0.00000000e+00  0.00000000e+00 -2.17024044e-01
  1.09584380e+00  0.00000000e+00  0.00000000e+00  9.03439175e-01 -2.19498154e+00
  0.00000000e+00  0.00000000e+00 -1.57380683e+00 -2.01415783e-02 -2.01415782e-02
  3.27511560e-01  0.00000000e+00  0.00000000e+00  0.00000000e+00  7.92502782e-01
  0.00000000e+00  0.00000000e+00  5.89148224e-01  1.03429924e-01  4.01068009e-01
  6.16665903e-02 -4.62603202e-02  0.00000000e+00  0.00000000e+00  1.81568993e-01
  1.36161020e+00  0.00000000e+00  0.00000000e+00 -7.55203450e-01 -2.41291047e+00
  0.00000000e+00  0.00000000e+00  1.06779765e+00  1.19925366e-01  1.19925366e-01
  2.48730514e-02  0.00000000e+00  0.00000000e+00  0.00000000e+00  9.25923062e-01
  0.00000000e+00  0.00000000e+00 -6.22227740e-01 -1.21590126e-01  3.03257186e-01
  0.00000000e+00  0.00000000e+00 -2.22523365e-04  3.05634431e-01  0.00000000e+00
  0.00000000e+00  9.09449240e-04 -1.24912276e+00  0.00000000e+00  0.00000000e+00
 -1.31654866e-03  1.80827124e+00  0.00000000e+00  0.00000000e+00  0.00000000e+00
  0.00000000e+00  0.00000000e+00  1.31079770e-05 -1.80037232e-02  0.00000000e+00
  6.22015520e-04 -8.54334370e-01  0.00000000e+00  0.00000000e+00  0.00000000e+00
  0.00000000e+00  0.00000000e+00  3.05634431e-01  2.22523365e-04  0.00000000e+00
  0.00000000e+00 -1.24912276e+00 -9.09449240e-04  0.00000000e+00  0.00000000e+00
  1.80827124e+00  1.31654866e-03  0.00000000e+00  0.00000000e+00  0.00000000e+00
  0.00000000e+00  0.00000000e+00 -1.80037232e-02 -1.31079770e-05  0.00000000e+00
 -8.54334370e-01 -6.22015520e-04  0.00000000e+00  0.00000000e+00  0.00000000e+00
  9.16042836e-03 -2.77328237e-02  0.00000000e+00  0.00000000e+00 -1.32379750e-01
  1.67926597e-01  0.00000000e+00  0.00000000e+00  4.75254508e-01 -7.35245743e-01
  0.00000000e+00  0.00000000e+00 -1.06060686e+00  2.56413847e-01  2.56413847e-01
 -5.57443332e-01  0.00000000e+00  0.00000000e+00  0.00000000e+00 -6.11835386e-01
  0.00000000e+00  0.00000000e+00 -2.87107806e-01 -8.96369402e-01  2.28411202e+00
  0.00000000e+00  0.00000000e+00  1.12498683e-02 -1.41515216e-06  0.00000000e+00
  0.00000000e+00 -3.84453336e-02  4.83614523e-06  0.00000000e+00  0.00000000e+00
  2.22218339e-02 -2.79534616e-06  0.00000000e+00  0.00000000e+00  0.00000000e+00
  0.00000000e+00  0.00000000e+00  9.99626635e-01 -1.25745809e-04  0.00000000e+00
 -7.94704749e-03  9.99681163e-07  0.00000000e+00  0.00000000e+00  0.00000000e+00
  0.00000000e+00  0.00000000e+00  1.41515216e-06  1.12498683e-02  0.00000000e+00
  0.00000000e+00 -4.83614522e-06 -3.84453336e-02  0.00000000e+00  0.00000000e+00
  2.79534615e-06  2.22218339e-02  0.00000000e+00  0.00000000e+00  0.00000000e+00
  0.00000000e+00  0.00000000e+00  1.25745809e-04  9.99626635e-01  0.00000000e+00
 -9.99681158e-07 -7.94704749e-03  0.00000000e+00  0.00000000e+00  0.00000000e+00
  3.72515725e-12 -5.07960083e-12  0.00000000e+00  0.00000000e+00 -3.74255853e-12
  7.82745369e-11  0.00000000e+00  0.00000000e+00  9.99437838e-12 -1.54842525e-10
  0.00000000e+00  0.00000000e+00 -2.77688804e-11  8.66025404e-01 -8.66025404e-01
  4.06953437e-12  7.34702698e-09  0.00000000e+00  0.00000000e+00  1.38575640e-11
  0.00000000e+00  0.00000000e+00 -3.25457616e-11 -7.27415495e-11  1.40976501e-10
  0.00000000e+00  0.00000000e+00  0.00000000e+00  0.00000000e+00  0.00000000e+00
  0.00000000e+00  0.00000000e+00  0.00000000e+00  0.00000000e+00  0.00000000e+00
  0.00000000e+00  0.00000000e+00  0.00000000e+00 -6.36271311e-09  6.36271181e-09
  0.00000000e+00  1.00000000e+00  0.00000000e+00  0.00000000e+00  0.00000000e+00
  0.00000000e+00  0.00000000e+00  0.00000000e+00  0.00000000e+00  0.00000000e+00
  4.70595481e-03  4.29834187e-02  0.00000000e+00  0.00000000e+00  1.83983327e-02
  2.25407990e-01  0.00000000e+00  0.00000000e+00  1.17856869e-02 -4.76161172e-01
  0.00000000e+00  0.00000000e+00 -3.90597066e-01  4.64502630e-01  4.64502630e-01
 -8.31868371e-01  0.00000000e+00  0.00000000e+00  0.00000000e+00  3.65145057e-01
  0.00000000e+00  0.00000000e+00  3.12327610e-01  1.10034857e+00 -7.26941729e-01
  1.69253833e-01 -8.15440880e-01  0.00000000e+00  0.00000000e+00  1.14336537e-03
  5.44263527e+00  0.00000000e+00  0.00000000e+00 -5.26068081e-03  4.33339952e-01
  0.00000000e+00  0.00000000e+00  4.86144239e-02 -2.47349640e+00 -2.47349640e+00
 -2.46464645e+00  0.00000000e+00  0.00000000e+00  0.00000000e+00 -1.93435060e-01
  0.00000000e+00  0.00000000e+00  2.65752693e-02  5.23403776e-02 -1.44560277e-01
Total SCF Density                          R   N=         325
  2.16066853e+00 -6.17744526e-01  2.38817580e+00  0.00000000e+00  0.00000000e+00
  2.12767705e+00  0.00000000e+00  0.00000000e+00  0.00000000e+00  2.12767705e+00
  5.44756883e-03 -2.50502916e-02  0.00000000e+00  0.00000000e+00  2.07533644e+00
  4.80797678e-02 -4.45774372e-01  0.00000000e+00  0.00000000e+00  6.01674501e-02
  1.21958617e+00  0.00000000e+00  0.00000000e+00 -3.63636445e-01  0.00000000e+00
  0.00000000e+00  0.00000000e+00  1.08684922e+00  0.00000000e+00  0.00000000e+00
  0.00000000e+00 -3.63636445e-01  0.00000000e+00  0.00000000e+00  0.00000000e+00
  1.08684922e+00 -1.40791330e-02  6.47703160e-02  0.00000000e+00  0.00000000e+00
 -2.22885141e-01 -1.52726640e-01  0.00000000e+00  0.00000000e+00  7.12676196e-01
  7.22579078e-02 -2.99225532e-01  0.00000000e+00  0.00000000e+00  7.41833068e-02
  5.30382268e-01  0.00000000e+00  0.00000000e+00 -1.93464470e-01  2.59040639e-01
  0.00000000e+00  0.00000000e+00 -2.35843310e-01  0.00000000e+00  0.00000000e+00
  0.00000000e+00  5.50872312e-01  0.00000000e+00  0.00000000e+00  0.00000000e+00
  2.80534900e-01  0.00000000e+00  0.00000000e+00  0.00000000e+00 -2.35843310e-01
  0.00000000e+00  0.00000000e+00  0.00000000e+00  5.50872312e-01  0.00000000e+00
  0.00000000e+00  0.00000000e+00  2.80534900e-01 -6.06931932e-03  2.82778947e-02
  0.00000000e+00  0.00000000e+00 -1.03947664e-01 -6.68053773e-02  0.00000000e+00
  0.00000000e+00  1.98415015e-01 -6.41187448e-02  0.00000000e+00  0.00000000e+00
  5.66031446e-02  2.19660514e-02 -2.28864575e-02  0.00000000e+00  0.00000000e+00
  1.00570201e-02 -2.22948558e-02  0.00000000e+00  0.00000000e+00 -2.73197658e-02
 -2.58746821e-03  0.00000000e+00  0.00000000e+00 -7.09286971e-03  2.24005088e-03
  2.19660514e-02 -2.28864575e-02  0.00000000e+00  0.00000000e+00  1.00570201e-02
 -2.22948558e-02  0.00000000e+00  0.00000000e+00 -2.73197658e-02 -2.58746821e-03
  0.00000000e+00  0.00000000e+00 -7.09286971e-03  2.24005088e-03  2.24005088e-03
  2.51222857e-02 -3.72743695e-02  0.00000000e+00  0.00000000e+00 -3.21947021e-02
  5.68942220e-03  0.00000000e+00  0.00000000e+00  8.44161351e-02 -1.12771476e-02
  0.00000000e+00  0.00000000e+00  2.31114243e-02 -3.19084256e-03 -3.19084256e-03
  1.12155196e-02  0.00000000e+00  0.00000000e+00  0.00000000e+00  0.00000000e+00
  0.00000000e+00  0.00000000e+00  0.00000000e+00  0.00000000e+00  0.00000000e+00
  0.00000000e+00  0.00000000e+00  0.00000000e+00  0.00000000e+00  0.00000000e+00
  0.00000000e+00  0.00000000e+00  0.00000000e+00  0.00000000e+00  0.00000000e+00
 -1.02531011e-02  0.00000000e+00  0.00000000e+00  0.00000000e+00  2.86463161e-02
  0.00000000e+00  0.00000000e+00  0.00000000e+00  1.45366361e-02  0.00000000e+00
  0.00000000e+00  0.00000000e+00  0.00000000e+00  0.00000000e+00  0.00000000e+00
  7.55259928e-04  0.00000000e+00  0.00000000e+00  0.00000000e+00 -1.02531011e-02
  0.00000000e+00  0.00000000e+00  0.00000000e+00  2.86463161e-02  0.00000000e+00
  0.00000000e+00  0.00000000e+00  1.45366361e-02  0.00000000e+00  0.00000000e+00
  0.00000000e+00  0.00000000e+00  0.00000000e+00  0.00000000e+00  7.55259928e-04
 -3.30141410e-03  1.00052611e-02  0.00000000e+00  0.00000000e+00  8.09538058e-03
 -5.35996609e-04  0.00000000e+00  0.00000000e+00 -2.50026760e-02  3.87912698e-03
  0.00000000e+00  0.00000000e+00 -6.84062298e-03  9.53012639e-04  9.53012639e-04
 -3.25270559e-03  0.00000000e+00  0.00000000e+00  0.00000000e+00  9.52986767e-04
  0.00000000e+00  0.00000000e+00 -1.91220609e-02  0.00000000e+00  0.00000000e+00
  0.00000000e+00  6.90180464e-02  0.00000000e+00  0.00000000e+00  0.00000000e+00
  3.48799893e-02  0.00000000e+00  0.00000000e+00  0.00000000e+00  0.00000000e+00
  0.00000000e+00  0.00000000e+00  1.81780005e-03  0.00000000e+00  0.00000000e+00
  4.39070055e-03  0.00000000e+00  0.00000000e+00  0.00000000e+00 -1.91220609e-02
  0.00000000e+00  0.00000000e+00  0.00000000e+00  6.90180464e-02  0.00000000e+00
  0.00000000e+00  0.00000000e+00  3.48799893e-02  0.00000000e+00  0.00000000e+00
  0.00000000e+00  0.00000000e+00  0.00000000e+00  0.00000000e+00  1.81780005e-03
  0.00000000e+00  0.00000000e+00  4.39070055e-03 -5.13031427e-04  2.47805724e-03
  0.00000000e+00  0.00000000e+00  4.33371845e-03 -6.11474795e-03  0.00000000e+00
  0.00000000e+00  5.97237552e-03 -3.59632578e-03  0.00000000e+00  0.00000000e+00
  1.63205581e-03 -1.12254393e-04 -1.12254393e-04  5.87498003e-04  0.00000000e+00
  0.00000000e+00  0.00000000e+00 -1.83590391e-04  0.00000000e+00  0.00000000e+00
  8.92637697e-05  9.57941890e-03 -4.15276441e-02  0.00000000e+00  0.00000000e+00
 -1.52125895e-01  6.76499526e-02  0.00000000e+00  0.00000000e+00  3.71431020e-01
 -3.92593095e-02  0.00000000e+00  0.00000000e+00  1.01159262e-01 -1.74265777e-02
 -1.74265777e-02  4.74573284e-02  0.00000000e+00  0.00000000e+00  0.00000000e+00
 -1.38695539e-02  0.00000000e+00  0.00000000e+00  2.39374102e-03  2.12778007e-01
 -7.41626684e-03  3.31136901e-02  0.00000000e+00  0.00000000e+00 -1.11082092e-01
 -7.01628185e-02  0.00000000e+00  0.00000000e+00  2.95378613e-01 -8.32698664e-02
  0.00000000e+00  0.00000000e+00  8.27656796e-02 -1.12311055e-02 -1.12311055e-02
  3.48421988e-02  0.00000000e+00  0.00000000e+00  0.00000000e+00 -1.03144742e-02
  0.00000000e+00  0.00000000e+00  2.44553070e-03  1.53404138e-01  1.22643019e-01
Cartesian Gradient                         R   N=           6
  7.90080710e-14  2.10726289e-14 -1.39933191e-05 -8.08471375e-16 -6.86592319e-16
  1.29910018e-05
