Generated by Psi4
     FORCE                           RHF                       TESTBAS
Number of atoms                            I               15
Charge                                     I                0
Multiplicity                               I                1
Number of electrons                        I               50
Number of alpha electrons                  I               25
Number of beta electrons                   I               25
Number of basis functions                  I              149
Number of independent functions            I              149
Atomic numbers                             I   N=          15
           6           6           6           6           6           6
           1           1           1           1           1           6
           1           1           1
Nuclear charges                            R   N=          15
  6.00000000e+00  6.00000000e+00  6.00000000e+00  6.00000000e+00  6.00000000e+00
  6.00000000e+00  1.00000000e+00  1.00000000e+00  1.00000000e+00  1.00000000e+00
  1.00000000e+00  6.00000000e+00  1.00000000e+00  1.00000000e+00  1.00000000e+00
Current cartesian coordinates              R   N=          45
 -2.96360297e+00  4.80253837e-01  1.86519166e+00 -6.28671262e-01  3.24318962e-01
  3.09000262e+00  1.58161471e+00 -4.29583797e-02  1.69184187e+00  1.50911369e+00
 -2.56803262e-01 -9.49504258e-01 -3.06499035e+00  2.62013457e-01 -7.65159959e-01
 -8.48186151e-01 -1.05165865e-01 -2.15289248e+00 -5.26070834e-01  4.81038517e-01
  5.13635278e+00  3.38917475e+00 -1.68898709e-01  2.66519992e+00 -4.68594559e+00
  7.60064363e-01  2.94914174e+00 -4.87117118e+00  3.69885946e-01 -1.73916817e+00
 -9.49318365e-01 -2.79950597e-01 -4.19979860e+00  3.91112956e+00 -5.90811904e-01
 -2.46231359e+00  5.35777809e+00 -1.59765515e+00 -1.37552021e+00  4.71449906e+00
  1.24473035e+00 -3.00627354e+00  3.56724703e+00 -1.65277596e+00 -4.20637362e+00
Integer atomic weights                     I   N=          15
          12          12          12          12          12          12
           1           1           1           1           1          12
           1           1           1
Real atomic weights                        R   N=          15
  1.20000000e+01  1.20000000e+01  1.20000000e+01  1.20000000e+01  1.20000000e+01
  1.20000000e+01  1.00782503e+00  1.00782503e+00  1.00782503e+00  1.00782503e+00
  1.00782503e+00  1.20000000e+01  1.00782503e+00  1.00782503e+00  1.00782503e+00
Number of primitive shells                 I              151
Number of contracted shells                I               72
Pure/Cartesian d shells                    I                1
Pure/Cartesian f shells                    I                1
Highest angular momentum                   I                2
Largest degree of contraction              I                6
Shell types                                I   N=          72
           0           0           1           0           1           2
           0           1           0           0           1           0
           1           2           0           1           0           0
           1           0           1           2           0           1
           0           0           1           0           1           2
           0           1           0           0           1           0
           1           2           0           1           0           0
           1           0           1           2           0           1
           0           0           0           0           0           0
           0           0           0           0           0           0
           1           0           1           2           0           1
           0           0           0           0           0           0
Number of primitives per shell             I   N=          72
           6           3           3           1           1           1
           1           1           6           3           3           1
           1           1           1           1           6           3
           3           1           1           1           1           1
           6           3           3           1           1           1
           1           1           6           3           3           1
           1           1           1           1           6           3
           3           1           1           1           1           1
           3           1           3           1           3           1
           3           1           3           1           6           3
           3           1           1           1           1           1
           3           1           3           1           3           1
Shell to atom map                          I   N=          72
           1           1           1           1           1           1
           1           1           2           2           2           2
           2           2           2           2           3           3
           3           3           3           3           3           3
           4           4           4           4           4           4
           4           4           5           5           5           5
           5           5           5           5           6           6
           6           6           6           6           6           6
           7           7           8           8           9           9
          10          10          11          11          12          12
          12          12          12          12          12          12
          13          13          14          14          15          15
Primitive exponents                        R   N=         151
  3.04752490e+03  4.57369510e+02  1.03948690e+02  2.92101550e+01  9.28666300e+00
  3.16392700e+00  7.86827240e+00  1.88128850e+00  5.44249300e-01  7.86827240e+00
  1.88128850e+00  5.44249300e-01  1.68714400e-01  1.68714400e-01  8.00000000e-01
  4.38000000e-02  4.38000000e-02  3.04752490e+03  4.57369510e+02  1.03948690e+02
  2.92101550e+01  9.28666300e+00  3.16392700e+00  7.86827240e+00  1.88128850e+00
  5.44249300e-01  7.86827240e+00  1.88128850e+00  5.44249300e-01  1.68714400e-01
  1.68714400e-01  8.00000000e-01  4.38000000e-02  4.38000000e-02  3.04752490e+03
  4.57369510e+02  1.03948690e+02  2.92101550e+01  9.28666300e+00  3.16392700e+00
  7.86827240e+00  1.88128850e+00  5.44249300e-01  7.86827240e+00  1.88128850e+00
  5.44249300e-01  1.68714400e-01  1.68714400e-01  8.00000000e-01  4.38000000e-02
  4.38000000e-02  3.04752490e+03  4.57369510e+02  1.03948690e+02  2.92101550e+01
  9.28666300e+00  3.16392700e+00  7.86827240e+00  1.88128850e+00  5.44249300e-01
  7.86827240e+00  1.88128850e+00  5.44249300e-01  1.68714400e-01  1.68714400e-01
  8.00000000e-01  4.38000000e-02  4.38000000e-02  3.04752490e+03  4.57369510e+02
  1.03948690e+02  2.92101550e+01  9.28666300e+00  3.16392700e+00  7.86827240e+00
  1.88128850e+00  5.44249300e-01  7.86827240e+00  1.88128850e+00  5.44249300e-01
  1.68714400e-01  1.68714400e-01  8.00000000e-01  4.38000000e-02  4.38000000e-02
  3.04752490e+03  4.57369510e+02  1.03948690e+02  2.92101550e+01  9.28666300e+00
  3.16392700e+00  7.86827240e+00  1.88128850e+00  5.44249300e-01  7.86827240e+00
  1.88128850e+00  5.44249300e-01  1.68714400e-01  1.68714400e-01  8.00000000e-01
  4.38000000e-02  4.38000000e-02  1.87311370e+01  2.82539370e+00  6.40121700e-01
  1.61277800e-01  1.87311370e+01  2.82539370e+00  6.40121700e-01  1.61277800e-01
  1.87311370e+01  2.82539370e+00  6.40121700e-01  1.61277800e-01  1.87311370e+01
  2.82539370e+00  6.40121700e-01  1.61277800e-01  1.87311370e+01  2.82539370e+00
  6.40121700e-01  1.61277800e-01  3.04752490e+03  4.57369510e+02  1.03948690e+02
  2.92101550e+01  9.28666300e+00  3.16392700e+00  7.86827240e+00  1.88128850e+00
  5.44249300e-01  7.86827240e+00  1.88128850e+00  5.44249300e-01  1.68714400e-01
  1.68714400e-01  8.00000000e-01  4.38000000e-02  4.38000000e-02  1.87311370e+01
  2.82539370e+00  6.40121700e-01  1.61277800e-01  1.87311370e+01  2.82539370e+00
  6.40121700e-01  1.61277800e-01  1.87311370e+01  2.82539370e+00  6.40121700e-01
  1.61277800e-01
Contraction coefficients                   R   N=         151
  1.83470016e-03  1.40373012e-02  6.88426061e-02  2.32184421e-01  4.67941342e-01
  3.62312032e-01 -1.19332409e-01 -1.60854212e-01  1.14345648e+00  6.89990956e-02
  3.16423980e-01  7.44308252e-01  1.00000000e+00  1.00000000e+00  1.00000000e+00
  1.00000000e+00  1.00000000e+00  1.83470016e-03  1.40373012e-02  6.88426061e-02
  2.32184421e-01  4.67941342e-01  3.62312032e-01 -1.19332409e-01 -1.60854212e-01
  1.14345648e+00  6.89990956e-02  3.16423980e-01  7.44308252e-01  1.00000000e+00
  1.00000000e+00  1.00000000e+00  1.00000000e+00  1.00000000e+00  1.83470016e-03
  1.40373012e-02  6.88426061e-02  2.32184421e-01  4.67941342e-01  3.62312032e-01
 -1.19332409e-01 -1.60854212e-01  1.14345648e+00  6.89990956e-02  3.16423980e-01
  7.44308252e-01  1.00000000e+00  1.00000000e+00  1.00000000e+00  1.00000000e+00
  1.00000000e+00  1.83470016e-03  1.40373012e-02  6.88426061e-02  2.32184421e-01
  4.67941342e-01  3.62312032e-01 -1.19332409e-01 -1.60854212e-01  1.14345648e+00
  6.89990956e-02  3.16423980e-01  7.44308252e-01  1.00000000e+00  1.00000000e+00
  1.00000000e+00  1.00000000e+00  1.00000000e+00  1.83470016e-03  1.40373012e-02
  6.88426061e-02  2.32184421e-01  4.67941342e-01  3.62312032e-01 -1.19332409e-01
 -1.60854212e-01  1.14345648e+00  6.89990956e-02  3.16423980e-01  7.44308252e-01
  1.00000000e+00  1.00000000e+00  1.00000000e+00  1.00000000e+00  1.00000000e+00
  1.83470016e-03  1.40373012e-02  6.88426061e-02  2.32184421e-01  4.67941342e-01
  3.62312032e-01 -1.19332409e-01 -1.60854212e-01  1.14345648e+00  6.89990956e-02
  3.16423980e-01  7.44308252e-01  1.00000000e+00  1.00000000e+00  1.00000000e+00
  1.00000000e+00  1.00000000e+00  3.34945995e-02  2.34726947e-01  8.13757318e-01
  1.00000000e+00  3.34945995e-02  2.34726947e-01  8.13757318e-01  1.00000000e+00
  3.34945995e-02  2.34726947e-01  8.13757318e-01  1.00000000e+00  3.34945995e-02
  2.34726947e-01  8.13757318e-01  1.00000000e+00  3.34945995e-02  2.34726947e-01
  8.13757318e-01  1.00000000e+00  1.83470016e-03  1.40373012e-02  6.88426061e-02
  2.32184421e-01  4.67941342e-01  3.62312032e-01 -1.19332409e-01 -1.60854212e-01
  1.14345648e+00  6.89990956e-02  3.16423980e-01  7.44308252e-01  1.00000000e+00
  1.00000000e+00  1.00000000e+00  1.00000000e+00  1.00000000e+00  3.34945995e-02
  2.34726947e-01  8.13757318e-01  1.00000000e+00  3.34945995e-02  2.34726947e-01
  8.13757318e-01  1.00000000e+00  3.34945995e-02  2.34726947e-01  8.13757318e-01
  1.00000000e+00
Coordinates of each shell                  R   N=         216
 -2.96360297e+00  4.80253837e-01  1.86519166e+00 -2.96360297e+00  4.80253837e-01
  1.86519166e+00 -2.96360297e+00  4.80253837e-01  1.86519166e+00 -2.96360297e+00
  4.80253837e-01  1.86519166e+00 -2.96360297e+00  4.80253837e-01  1.86519166e+00
 -2.96360297e+00  4.80253837e-01  1.86519166e+00 -2.96360297e+00  4.80253837e-01
  1.86519166e+00 -2.96360297e+00  4.80253837e-01  1.86519166e+00 -6.28671262e-01
  3.24318962e-01  3.09000262e+00 -6.28671262e-01  3.24318962e-01  3.09000262e+00
 -6.28671262e-01  3.24318962e-01  3.09000262e+00 -6.28671262e-01  3.24318962e-01
  3.09000262e+00 -6.28671262e-01  3.24318962e-01  3.09000262e+00 -6.28671262e-01
  3.24318962e-01  3.09000262e+00 -6.28671262e-01  3.24318962e-01  3.09000262e+00
 -6.28671262e-01  3.24318962e-01  3.09000262e+00  1.58161471e+00 -4.29583797e-02
  1.69184187e+00  1.58161471e+00 -4.29583797e-02  1.69184187e+00  1.58161471e+00
 -4.29583797e-02  1.69184187e+00  1.58161471e+00 -4.29583797e-02  1.69184187e+00
  1.58161471e+00 -4.29583797e-02  1.69184187e+00  1.58161471e+00 -4.29583797e-02
  1.69184187e+00  1.58161471e+00 -4.29583797e-02  1.69184187e+00  1.58161471e+00
 -4.29583797e-02  1.69184187e+00  1.50911369e+00 -2.56803262e-01 -9.49504258e-01
  1.50911369e+00 -2.56803262e-01 -9.49504258e-01  1.50911369e+00 -2.56803262e-01
 -9.49504258e-01  1.50911369e+00 -2.56803262e-01 -9.49504258e-01  1.50911369e+00
 -2.56803262e-01 -9.49504258e-01  1.50911369e+00 -2.56803262e-01 -9.49504258e-01
  1.50911369e+00 -2.56803262e-01 -9.49504258e-01  1.50911369e+00 -2.56803262e-01
 -9.49504258e-01 -3.06499035e+00  2.62013457e-01 -7.65159959e-01 -3.06499035e+00
  2.62013457e-01 -7.65159959e-01 -3.06499035e+00  2.62013457e-01 -7.65159959e-01
 -3.06499035e+00  2.62013457e-01 -7.65159959e-01 -3.06499035e+00  2.62013457e-01
 -7.65159959e-01 -3.06499035e+00  2.62013457e-01 -7.65159959e-01 -3.06499035e+00
  2.62013457e-01 -7.65159959e-01 -3.06499035e+00  2.62013457e-01 -7.65159959e-01
 -8.48186151e-01 -1.05165865e-01 -2.15289248e+00 -8.48186151e-01 -1.05165865e-01
 -2.15289248e+00 -8.48186151e-01 -1.05165865e-01 -2.15289248e+00 -8.48186151e-01
 -1.05165865e-01 -2.15289248e+00 -8.48186151e-01 -1.05165865e-01 -2.15289248e+00
 -8.48186151e-01 -1.05165865e-01 -2.15289248e+00 -8.48186151e-01 -1.05165865e-01
 -2.15289248e+00 -8.48186151e-01 -1.05165865e-01 -2.15289248e+00 -5.26070834e-01
  4.81038517e-01  5.13635278e+00 -5.26070834e-01  4.81038517e-01  5.13635278e+00
  3.38917475e+00 -1.68898709e-01  2.66519992e+00  3.38917475e+00 -1.68898709e-01
  2.66519992e+00 -4.68594559e+00  7.60064363e-01  2.94914174e+00 -4.68594559e+00
  7.60064363e-01  2.94914174e+00 -4.87117118e+00  3.69885946e-01 -1.73916817e+00
 -4.87117118e+00  3.69885946e-01 -1.73916817e+00 -9.49318365e-01 -2.79950597e-01
 -4.19979860e+00 -9.49318365e-01 -2.79950597e-01 -4.19979860e+00  3.91112956e+00
 -5.90811904e-01 -2.46231359e+00  3.91112956e+00 -5.90811904e-01 -2.46231359e+00
  3.91112956e+00 -5.90811904e-01 -2.46231359e+00  3.91112956e+00 -5.90811904e-01
 -2.46231359e+00  3.91112956e+00 -5.90811904e-01 -2.46231359e+00  3.91112956e+00
 -5.90811904e-01 -2.46231359e+00  3.91112956e+00 -5.90811904e-01 -2.46231359e+00
  3.91112956e+00 -5.90811904e-01 -2.46231359e+00  5.35777809e+00 -1.59765515e+00
 -1.37552021e+00  5.35777809e+00 -1.59765515e+00 -1.37552021e+00  4.71449906e+00
  1.24473035e+00 -3.00627354e+00  4.71449906e+00  1.24473035e+00 -3.00627354e+00
  3.56724703e+00 -1.65277596e+00 -4.20637362e+00  3.56724703e+00 -1.65277596e+00
 -4.20637362e+00
Total Energy                               R     -2.715772683815968e+02
Alpha Orbital Energies                     R   N=         149
 -1.02035559e+01 -1.01950677e+01 -1.01949929e+01 -1.01930245e+01 -1.01923336e+01
 -1.01923209e+01 -1.01884485e+01 -8.57436679e-01 -7.73550608e-01 -7.46334278e-01
 -6.87947573e-01 -6.07071572e-01 -5.86301088e-01 -5.13191800e-01 -4.60560217e-01
 -4.58238438e-01 -4.22822450e-01 -4.22195093e-01 -4.10959409e-01 -3.88495780e-01
 -3.56448465e-01 -3.44937282e-01 -3.42290243e-01 -2.53880045e-01 -2.45288619e-01
 -1.27685979e-02 -1.09920921e-02  6.19169304e-03  1.93942717e-02  2.51153044e-02
  4.13417967e-02  4.78132325e-02  5.08856620e-02  6.63344608e-02  7.01150391e-02
  7.77266959e-02  8.21722166e-02  9.03181461e-02  1.04050620e-01  1.20496439e-01
  1.29329644e-01  1.32534794e-01  1.34549377e-01  1.39607385e-01  1.56335953e-01
  1.61421982e-01  1.68709892e-01  1.75993586e-01  1.79423829e-01  1.90488300e-01
  2.01722677e-01  2.04439067e-01  2.16368241e-01  2.17543028e-01  2.30641805e-01
  2.42517126e-01  2.44593402e-01  2.49658870e-01  2.62697455e-01  2.66951947e-01
  2.79872665e-01  2.86410773e-01  2.96778682e-01  3.17061585e-01  3.43822840e-01
  3.51701030e-01  3.54389554e-01  3.69691270e-01  3.70361193e-01  5.59118334e-01
  5.97423705e-01  6.34210090e-01  6.67708814e-01  6.73126857e-01  6.89805591e-01
  7.09909575e-01  7.15157157e-01  7.19495836e-01  7.34197227e-01  7.44034196e-01
  7.46838248e-01  7.69961596e-01  7.73977734e-01  7.81772436e-01  7.97236622e-01
  8.20458149e-01  8.45848500e-01  8.98671685e-01  9.33043166e-01  9.43596432e-01
  9.64570598e-01  9.85093796e-01  1.01074024e+00  1.02283050e+00  1.03431903e+00
  1.08554126e+00  1.09090035e+00  1.12522442e+00  1.13980302e+00  1.16667463e+00
  1.16943706e+00  1.22819367e+00  1.25590503e+00  1.29904147e+00  1.37920679e+00
  1.38554636e+00  1.44399611e+00  1.44628261e+00  1.48353565e+00  1.49261484e+00
  1.50931831e+00  1.51177735e+00  1.81486727e+00  1.83054452e+00  1.85577405e+00
  1.89808688e+00  1.90761495e+00  1.92413482e+00  1.95472053e+00  1.99685358e+00
  2.10202618e+00  2.10832015e+00  2.13911711e+00  2.14593959e+00  2.18241772e+00
  2.19361717e+00  2.27581938e+00  2.27779962e+00  2.31039136e+00  2.36043977e+00
  2.37509701e+00  2.42453430e+00  2.59924713e+00  2.60013044e+00  2.65176738e+00
  2.74030731e+00  2.74100366e+00  2.74663212e+00  2.77681370e+00  2.91439748e+00
  3.05206905e+00  3.40069465e+00  4.21496496e+00  4.24384902e+00  4.25503676e+00
  4.31710750e+00  4.38489887e+00  4.44370232e+00  4.70667758e+00
Alpha MO coefficients                      R   N=       22201
 -4.05884443e-04 -3.31873005e-04 -1.33053186e-05  6.82764473e-07  8.38349111e-06
  4.41119897e-03  1.96024819e-03 -3.18671921e-04 -1.23361975e-03 -1.16279567e-05
 -1.20664527e-04 -3.78756025e-06 -1.34535917e-05  1.00657475e-05  1.07903976e-05
 -2.36135837e-02 -4.05230262e-03  6.73156769e-04  2.55457531e-03  7.62123120e-04
  1.27993788e-04 -4.16985185e-05  3.40617651e-06 -1.01645655e-05 -3.45389014e-03
  5.87624909e-04  1.39666110e-04  2.50907583e-03  7.70680364e-06  2.04104681e-05
  5.56545094e-05 -1.85133068e-06 -2.61882231e-05  6.45765331e-06  3.31534642e-02
  1.40566238e-03 -6.54684660e-04 -5.71662204e-03  2.33798273e-02  7.61971085e-04
  5.51080971e-05  1.69117276e-05  2.73261480e-04  6.74671123e-03 -2.20466781e-03
  1.66650262e-05 -3.04387865e-03 -2.97919106e-04 -3.20249313e-04 -6.30310946e-04
 -4.17159900e-06  1.42196892e-05 -3.58972686e-05 -6.14175419e-02  9.25871166e-03
 -4.80484133e-04  6.91752109e-03  9.92403444e-01  5.00691815e-02 -4.27304317e-05
  2.76121418e-05  2.64148312e-05 -2.19045507e-02  2.50876282e-03 -4.98275605e-04
 -1.57638889e-03 -8.85466096e-03 -9.10156519e-03 -8.79453756e-03 -2.52925094e-05
  7.39472530e-05  2.24906627e-05  8.95210441e-02 -1.35241505e-02  2.31489632e-03
  8.49784605e-03  7.62301090e-04  1.28060473e-04 -8.78672651e-06  4.25509936e-06
  4.19625630e-05 -3.45449125e-03 -2.01609603e-03  7.31664515e-05 -1.61009963e-03
  6.45339065e-05  2.02141764e-05 -9.76332108e-07 -5.75271411e-06  5.09498063e-06
 -1.58689081e-06  3.31513723e-02  5.77177466e-03 -5.42171778e-04  1.20555226e-03
  2.33701230e-02  7.61481532e-04 -2.23255779e-04  9.77872170e-06 -1.67380252e-04
  6.74821568e-03  1.80201527e-03  1.19287069e-04  3.29673477e-03 -5.79217602e-04
 -3.18782197e-04 -3.50222220e-04  2.30040350e-05 -1.40727178e-04  1.63259594e-05
 -6.14317860e-02 -2.27824044e-03 -7.74082729e-04 -1.13171986e-02 -1.04722718e-04
 -6.33183345e-04 -4.76508856e-05  1.13413379e-03  4.72670569e-06  7.51440926e-04
 -1.04730695e-04 -6.33350946e-04 -4.76216325e-05  1.13423168e-03  7.93043350e-03
  3.50939060e-04  1.42507482e-04 -2.88249170e-05 -8.95432820e-05  2.08604039e-03
 -7.74173543e-04  2.48148138e-04  4.84229548e-04 -4.54394333e-04 -7.72179707e-05
 -2.74330423e-04  6.02655549e-05  2.16424842e-04 -3.95911776e-05 -8.24408548e-03
  2.84407162e-03 -4.31328584e-04 -1.79025134e-03 -1.20633692e-04  1.03298399e-04
 -1.61829426e-04 -6.95490893e-05 -1.20862764e-04  1.02514751e-04  1.90782534e-01
  8.98944777e-03 -1.95351924e-04  3.11888939e-05  1.30963223e-04  6.60788691e-03
  4.04519765e-03 -6.71322835e-04 -2.60192436e-03 -1.99216106e-03 -1.94365648e-03
 -2.12461032e-03 -7.18672142e-06 -1.51924245e-04 -9.83045414e-07 -3.22105929e-02
 -4.01976792e-03  6.43226967e-04  2.57835635e-03  6.69754405e-01  3.38510169e-02
  6.28973254e-05 -1.83470788e-05 -1.09310724e-04 -1.55050118e-02 -1.97549617e-04
  3.68064375e-04  4.06341137e-03 -6.07399871e-03 -6.26182022e-03 -6.10644735e-03
 -2.41616126e-05  1.13182533e-05  1.35900827e-05  2.43658176e-02 -2.40069924e-03
 -1.66866425e-04 -5.59152483e-03  6.64984160e-02  2.83647454e-03  2.01846176e-04
 -2.85799519e-05 -6.28270293e-05  6.23661643e-03 -3.68823204e-03  3.59495839e-04
 -8.22796081e-04 -7.76810533e-04 -7.82412291e-04 -7.35126056e-04  6.24243247e-06
  9.74304585e-05 -7.99597458e-06 -1.11067335e-02  1.49752483e-03 -7.04738916e-05
  1.62561329e-03 -4.17329611e-03 -1.12417209e-04  4.17327727e-05 -3.88509916e-06
 -2.45997036e-05 -4.49475923e-03  1.88581813e-03 -3.46430221e-04 -1.18420625e-03
  3.78643792e-05  5.97276995e-05  3.45192416e-05 -1.96488963e-06 -3.67206494e-06
  7.25084297e-07 -5.15100044e-04 -1.65788765e-03  2.45729953e-04  1.17193454e-03
  7.01038137e-01  3.54298209e-02  1.31297250e-04 -1.69597766e-05 -4.39621529e-06
 -1.60401595e-02 -3.80973738e-03  2.79144778e-04 -1.61388374e-03 -6.39487957e-03
 -6.55507221e-03 -6.35753760e-03 -2.12336765e-05 -1.01703748e-05  2.22102080e-05
  2.54977844e-02  4.27603170e-03 -2.77364328e-05  4.60452639e-03  6.96716013e-02
  2.98974924e-03  1.50808869e-04 -3.12777522e-05 -1.59731376e-04  6.31646009e-03
 -8.79955069e-04  4.40944898e-04  3.73007978e-03 -8.47693276e-04 -8.12509308e-04
 -7.36966932e-04  1.28393724e-05  8.40288806e-05  2.96642049e-07 -1.14899677e-02
 -6.07449764e-04 -1.61740341e-04 -2.13510882e-03 -2.69531407e-04  3.59548180e-04
 -1.22739866e-05  1.23723386e-03 -4.68305781e-05  1.89070300e-03 -2.75548469e-04
  3.94279120e-04 -1.32437008e-05  1.25550584e-03 -4.05648857e-04 -2.22495586e-04
  6.80862042e-05 -1.81367722e-05 -4.17722374e-05  4.35703170e-04 -3.58868948e-04
  1.45338575e-04  2.16196149e-04 -2.43559100e-05 -8.72586605e-05 -5.52085322e-05
 -9.10230419e-06 -3.57117872e-05  6.37437526e-06  6.81009634e-03 -1.70592972e-03
  2.68446638e-04  1.06847307e-03 -2.20504681e-05 -2.41165879e-05 -2.74345761e-05
 -1.66652040e-04 -2.40589870e-05 -2.50388186e-05  4.45360901e-03  2.10495920e-04
 -1.66787394e-04 -3.46330862e-06 -2.54152782e-04  1.42940874e-04  1.22659278e-03
  1.43000446e-05  1.74232737e-03 -1.77992943e-04 -4.46352164e-05  8.20085946e-05
  1.07396570e-05 -7.58778996e-05  2.15383178e-05 -7.04520313e-04 -9.16272920e-04
 -7.28138466e-06 -1.25523697e-03  7.13323270e-01  3.59990981e-02 -4.97508103e-05
 -9.48715258e-06 -1.57767353e-04 -1.22674137e-02  3.45330182e-04  8.98045241e-05
  1.47674313e-03 -6.45159107e-03 -6.69171821e-03 -6.58538126e-03 -3.23747465e-05
 -1.14722990e-05  1.12194414e-05  2.58474153e-02  2.01151187e-03 -6.95671189e-04
 -5.55716138e-03  7.53886761e-02  3.64213180e-03  1.72140264e-04 -2.71631832e-05
 -9.27761318e-05  1.83601905e-03 -1.50364771e-03  1.82452361e-04  1.51854579e-04
 -8.75069106e-04 -7.23545533e-04 -8.33393590e-04  3.04436998e-05  1.19123750e-04
 -2.47008591e-05 -8.02572841e-03  4.06785760e-03 -8.00309703e-04 -3.97395012e-03
 -9.70649325e-05 -2.85414664e-06 -3.51530452e-05 -1.01347737e-06 -5.77310584e-05
 -9.82450299e-05  2.18127061e-05 -8.06893173e-06 -5.63477851e-05 -3.70266456e-06
  1.33170077e-06  5.29982453e-06  1.21180091e-07 -2.59272238e-06  4.16571926e-07
 -2.51160898e-05 -3.04098682e-03 -7.16233271e-05 -4.73052954e-03 -6.82681518e-01
 -3.44507467e-02 -1.15558353e-04  4.37857273e-06 -1.13234355e-04  1.15676142e-02
  1.01984283e-03 -3.84042090e-05  8.77721426e-04  6.27285687e-03  6.40465335e-03
  6.20698132e-03  2.23151825e-05  6.66476696e-05 -2.80262584e-05 -2.47549322e-02
 -5.70954618e-03  5.95961361e-04 -3.82202410e-04 -7.22101318e-02 -3.50496971e-03
 -1.51515719e-04  2.61642724e-05  1.08048989e-04 -1.56118635e-03  7.46750784e-04
 -1.81542357e-04 -1.12536427e-03  8.83704037e-04  6.86458892e-04  7.53328396e-04
 -3.36732729e-05 -8.96494534e-05  1.72612051e-05  7.54149142e-03 -5.37585647e-03
  7.61146921e-04  1.86060457e-03 -1.40198592e-04  7.88115778e-04 -2.31063834e-05
  4.38027834e-04 -1.11574251e-06  4.22136939e-05  1.28024971e-04 -7.70364958e-04
  2.24327207e-05 -3.82649815e-04 -9.14592522e-06 -4.95353843e-06 -1.64586232e-05
 -8.51553388e-07 -2.93891535e-05  9.78462907e-06  1.38998523e-04  6.93299949e-06
  2.37867903e-04 -2.17001898e-05 -2.39754732e-06  2.04185966e-05 -8.04618183e-06
 -1.22533686e-05 -1.15299358e-05  1.51717870e-04  8.21858299e-05  8.96712118e-06
  2.13913271e-04 -4.52861768e-05  5.07467078e-06 -4.82465029e-07 -3.38532498e-06
  4.41183117e-05 -5.88213181e-06  9.72932088e-01  4.93969824e-02  2.50540678e-04
 -4.51210284e-05 -1.57546119e-04 -2.35539709e-02 -5.06072196e-03  8.42473010e-04
  3.18423653e-03 -8.80833076e-03 -9.05940389e-03 -8.71029965e-03 -2.13818425e-05
  1.20144177e-04  2.12524990e-05  5.96465230e-02  1.04909070e-02 -1.78408171e-03
 -6.59863237e-03 -1.30687569e-01 -7.09503916e-03  2.30601283e-04 -7.58714346e-06
  2.14900946e-04  1.13591345e-02 -1.76111783e-03 -2.48652257e-04 -5.24785523e-03
  8.35243876e-04  1.10605419e-03  1.07508180e-03  2.49613987e-05 -1.23038156e-04
  1.09721615e-05 -4.58921348e-02  1.80711839e-03  5.08741971e-04  7.83480237e-03
 -5.20620584e-02 -2.39068149e-03 -7.63166487e-06  1.18334647e-06 -6.00051736e-06
 -5.18690256e-03  3.28590359e-03 -2.28200704e-04  1.73130343e-03  5.81223921e-04
  5.60750080e-04  5.09551458e-04 -4.37846170e-06 -2.23099920e-05 -2.00790518e-06
  2.51064407e-02 -5.02737221e-03  5.21066572e-04 -1.68993139e-05  2.94625103e-03
 -1.67795361e-04  4.35192825e-05 -7.19377375e-06 -2.72623780e-05  5.10861463e-03
 -3.14625530e-03  5.12309825e-04  1.97852786e-03 -3.64993071e-05 -1.47101647e-04
 -5.78516843e-06 -1.04751411e-05  3.77492821e-05  9.64749815e-06 -1.79264033e-02
  4.37204376e-03 -6.59933167e-04 -2.75398232e-03 -1.30461914e-01 -7.08364299e-03
 -9.49731939e-05 -1.59083159e-05 -3.00186245e-04  1.13558624e-02  3.98679913e-03
 -1.01723769e-04  3.84703050e-03  1.11134266e-03  1.10270996e-03  7.95915118e-04
  1.62028135e-06  3.01099819e-05 -3.50437930e-05 -4.58945982e-02 -6.30890890e-03
  3.02012887e-04 -4.99999749e-03 -5.18019557e-02 -2.37750434e-03  2.16635454e-06
  1.42687084e-06  9.46169806e-06 -5.19170750e-03 -1.50704360e-04 -3.16076353e-04
 -3.70493596e-03  5.35308598e-04  5.58482401e-04  5.50447910e-04 -1.52679571e-06
 -4.62112165e-05  3.91609572e-06  2.51162964e-02 -2.15469438e-03  5.95531741e-04
  4.53771569e-03  7.28227419e-05  1.30598311e-03 -9.48871603e-05 -1.02948986e-03
 -2.80878787e-04  9.32917225e-05  7.27828635e-05  1.30651816e-03 -9.48791922e-05
 -1.02926776e-03  1.09661816e-04 -2.14176667e-05 -2.95474676e-05  1.05143529e-05
  1.84525403e-05  1.36637115e-03 -4.43480847e-04 -2.22498939e-06  2.81109176e-04
  2.99811669e-06 -3.23502925e-08 -2.16590193e-06  3.03225044e-07 -6.33244807e-06
 -2.96640003e-07  4.40817800e-04 -3.75916913e-04  3.87912159e-05  2.36965390e-04
 -9.08916158e-07 -1.55790864e-04 -3.63915456e-06 -5.69811483e-05 -9.07270201e-07
 -1.55179029e-04  4.80715882e-03  2.67939733e-04 -2.54092707e-05 -1.39949913e-06
 -4.92238690e-05 -8.10481315e-04 -3.93999790e-04  6.59345160e-05  2.57719203e-04
  7.05806400e-06 -3.82962527e-05 -7.53540744e-05 -4.03006179e-06  2.15991804e-05
 -6.34987743e-06  2.49149890e-03  2.60414441e-03 -7.07970305e-06  3.28943196e-03
 -8.04862407e-02 -4.26804657e-03 -1.24840014e-04  2.83255763e-05  1.67749273e-04
  5.00896742e-03  8.24375913e-04 -2.76558628e-04 -2.16192691e-03  4.50856545e-04
  7.25798390e-04  6.46353238e-04  4.51056856e-05  1.04992917e-04 -1.95174067e-05
 -2.98926612e-02  6.79781534e-04  4.22792057e-04  5.84775963e-03  7.55726277e-01
  3.83109103e-02 -1.80011196e-04  1.64468473e-05 -5.99361975e-05 -1.53216891e-02
  1.84651512e-03 -7.66795166e-05  1.52298934e-03 -6.88690271e-03 -7.05279729e-03
 -6.85039471e-03 -3.17438897e-05 -9.99007163e-05  3.07328071e-05  5.72510544e-02
 -6.16447145e-03 -1.27358293e-04 -9.71243696e-03 -2.86992732e-03 -2.03885123e-04
 -1.68093035e-04 -8.77983955e-06 -3.21329135e-04  1.13955500e-03  1.14865562e-03
  1.43258449e-04  3.20166485e-03  1.09609528e-04  1.17145684e-05 -1.19425744e-04
 -7.19977334e-06  4.88599764e-05 -1.61748136e-05 -4.34170175e-03 -1.02108157e-02
 -2.69238098e-04 -1.61881002e-02  6.69881298e-02  3.47339162e-03  1.68119241e-04
 -2.17312192e-05 -3.38972628e-05 -2.86448946e-03 -1.28309216e-03  1.57065780e-04
  1.70901388e-04 -4.50802710e-04 -6.33064231e-04 -4.68806217e-04 -3.49189959e-05
 -1.30353401e-04  3.17318043e-05  2.27205663e-02  3.62924376e-03 -1.50954161e-04
  2.80577420e-03 -6.35476755e-01 -3.21847936e-02  1.52974943e-05 -1.60555480e-05
 -1.52958433e-04  1.17278850e-02  5.72024657e-04  3.50389577e-05  1.11448523e-03
  5.72167374e-03  5.93957034e-03  5.85798725e-03  3.22247181e-05  4.38799132e-05
 -1.45744351e-05 -4.91403581e-02 -6.13236453e-03 -5.34393273e-05 -8.21820810e-03
  1.24318421e-05  5.60966230e-04 -1.31715663e-04  7.24227809e-04 -1.63922210e-05
 -1.00188287e-04 -3.84972358e-06 -2.55546532e-04  7.69691124e-05 -8.00200448e-04
 -1.61763201e-04 -3.17973850e-05 -1.99238378e-05 -4.59602291e-07 -2.12807074e-05
  2.79734906e-04 -3.12834852e-04  8.37572172e-06 -2.73288315e-04  3.07417916e-05
 -5.06795232e-06 -1.97470026e-05  1.62556646e-06  9.73574580e-06  5.11498402e-06
  9.98098703e-04  8.69949237e-04  4.69680115e-05  1.73862099e-03 -9.99746122e-06
  1.01546247e-04 -3.37190421e-06  3.74583749e-06 -3.57325114e-06 -7.82209338e-05
  5.37908685e-02  3.00586708e-03  4.90206019e-05 -7.24037651e-06 -2.51728701e-05
 -9.29892972e-03 -4.58451099e-03  7.57071560e-04  2.88382572e-03 -3.79219148e-04
 -4.24250778e-04 -3.81450547e-04 -6.52645844e-06 -1.29645256e-05  5.51725404e-06
  2.86745620e-02  4.12710242e-03 -7.40582838e-04 -3.02256056e-03 -7.05462433e-02
 -4.20113343e-03 -1.15927627e-04  2.62237750e-05  1.64848598e-04  1.19966035e-02
  6.12775020e-04 -5.84289091e-04 -6.07758893e-03  3.83296804e-04  4.65615861e-04
  5.40100311e-04  1.74998422e-05  8.00439576e-05 -1.09760773e-06 -3.90221437e-02
 -1.75522778e-03  8.57672399e-04  7.44967483e-03  6.33610116e-01  3.22950553e-02
 -1.87681146e-04  2.02157968e-05 -3.98426006e-05 -1.95461745e-02  6.14002955e-03
 -4.33975899e-04  2.92823135e-03 -5.70686538e-03 -5.86298711e-03 -5.64597310e-03
 -2.63203708e-05 -5.78052088e-05  2.54698205e-05  4.21790715e-02 -7.44950750e-03
  5.81977984e-04 -2.95203032e-03 -3.30443760e-02 -2.34742739e-03  3.05564827e-04
 -4.37945306e-05 -1.55355191e-04  1.31241688e-02 -7.37035506e-03  1.12420308e-03