Generated by Psi4
     FORCE                           RHF                       TESTBAS
Number of atoms                            I               23
Charge                                     I                0
Multiplicity                               I                1
Number of electrons                        I               90
Number of alpha electrons                  I               45
Number of beta electrons                   I               45
Number of basis functions                  I              237
Number of independent functions            I              237
Atomic numbers                             I   N=          23
           6           6           6           1           1           7
           6           6           6           6           6           1
           1           1           6           1           1           1
           1           1           1           1          17
Nuclear charges                            R   N=          23
  6.00000000e+00  6.00000000e+00  6.00000000e+00  1.00000000e+00  1.00000000e+00
  7.00000000e+00  6.00000000e+00  6.00000000e+00  6.00000000e+00  6.00000000e+00
  6.00000000e+00  1.00000000e+00  1.00000000e+00  1.00000000e+00  6.00000000e+00
  1.00000000e+00  1.00000000e+00  1.00000000e+00  1.00000000e+00  1.00000000e+00
  1.00000000e+00  1.00000000e+00  1.70000000e+01
Current cartesian coordinates              R   N=          69
  1.16607816e+00  2.18771953e-01  5.78572641e-01 -2.86602820e-01 -1.15799338e+00
  2.61878774e+00 -3.11729605e+00 -3.83591803e-01  2.88603710e+00  6.47241380e-01
 -8.36958056e-01  4.44521206e+00 -2.15150684e-01 -3.19731408e+00  2.25792539e+00
 -4.52829064e+00 -2.03515806e+00  4.61317864e+00  2.75499140e+00  2.25783961e+00
  1.19018650e+00  4.10092461e+00  3.58945221e+00 -6.44205863e-01  3.89218074e+00
  2.89695844e+00 -3.18265449e+00  2.34447002e+00  8.72453662e-01 -3.86000495e+00
  1.01413858e+00 -4.30609226e-01 -1.99117352e+00 -3.78865404e+00 -1.95628733e+00
  6.39187081e+00 -4.43834078e+00 -3.87237017e+00  4.04395238e+00  5.31106397e+00
  5.15389985e+00 -9.19658850e-02 -3.42947435e+00  2.35561041e+00  3.76048482e+00
 -4.01195749e+00 -5.85198161e-01  1.02761710e+00 -2.59823874e+00  2.62749008e+00
  5.64563878e+00 -5.43770877e+00  2.83677305e+00  3.87565136e+00 -2.50420939e+00
  3.67667979e+00  2.46456137e+00  2.93157762e+00  2.79714137e+00  3.16565240e+00
  4.93064559e+00  3.91309954e+00 -4.63373228e+00  2.16699737e+00  2.93770556e-01
 -5.81971021e+00 -8.80823082e-01 -3.00449856e+00 -2.96898250e+00
Integer atomic weights                     I   N=          23
          12          12          12           1           1          14
          12          12          12          12          12           1
           1           1          12           1           1           1
           1           1           1           1          34
Real atomic weights                        R   N=          23
  1.20000000e+01  1.20000000e+01  1.20000000e+01  1.00782503e+00  1.00782503e+00
  1.40030740e+01  1.20000000e+01  1.20000000e+01  1.20000000e+01  1.20000000e+01
  1.20000000e+01  1.00782503e+00  1.00782503e+00  1.00782503e+00  1.20000000e+01
  1.00782503e+00  1.00782503e+00  1.00782503e+00  1.00782503e+00  1.00782503e+00
  1.00782503e+00  1.00782503e+00  3.49688527e+01
Number of primitive shells                 I              247
Number of contracted shells                I              114
Pure/Cartesian d shells                    I                1
Pure/Cartesian f shells                    I                1
Highest angular momentum                   I                2
Largest degree of contraction              I                6
Shell types                                I   N=         114
           0           0           1           0           1           2
           0           1           0           0           1           0
           1           2           0           1           0           0
           1           0           1           2           0           1
           0           0           0           0           0           0
           1           0           1           2           0           1
           0           0           1           0           1           2
           0           1           0           0           1           0
           1           2           0           1           0           0
           1           0           1           2           0           1
           0           0           1           0           1           2
           0           1           0           0           1           0
           1           2           0           1           0           0
           0           0           0           0           0           0
           1           0           1           2           0           1
           0           0           0           0           0           0
           0           0           0           0           0           0
           0           0           0           0           1           0
           1           0           1           2           0           1
Number of primitives per shell             I   N=         114
           6           3           3           1           1           1
           1           1           6           3           3           1
           1           1           1           1           6           3
           3           1           1           1           1           1
           3           1           3           1           6           3
           3           1           1           1           1           1
           6           3           3           1           1           1
           1           1           6           3           3           1
           1           1           1           1           6           3
           3           1           1           1           1           1
           6           3           3           1           1           1
           1           1           6           3           3           1
           1           1           1           1           3           1
           3           1           3           1           6           3
           3           1           1           1           1           1
           3           1           3           1           3           1
           3           1           3           1           3           1
           3           1           6           6           6           3
           3           1           1           1           1           1
Shell to atom map                          I   N=         114
           1           1           1           1           1           1
           1           1           2           2           2           2
           2           2           2           2           3           3
           3           3           3           3           3           3
           4           4           5           5           6           6
           6           6           6           6           6           6
           7           7           7           7           7           7
           7           7           8           8           8           8
           8           8           8           8           9           9
           9           9           9           9           9           9
          10          10          10          10          10          10
          10          10          11          11          11          11
          11          11          11          11          12          12
          13          13          14          14          15          15
          15          15          15          15          15          15
          16          16          17          17          18          18
          19          19          20          20          21          21
          22          22          23          23          23          23
          23          23          23          23          23          23
Primitive exponents                        R   N=         247
  3.04752490e+03  4.57369510e+02  1.03948690e+02  2.92101550e+01  9.28666300e+00
  3.16392700e+00  7.86827240e+00  1.88128850e+00  5.44249300e-01  7.86827240e+00
  1.88128850e+00  5.44249300e-01  1.68714400e-01  1.68714400e-01  8.00000000e-01
  4.38000000e-02  4.38000000e-02  3.04752490e+03  4.57369510e+02  1.03948690e+02
  2.92101550e+01  9.28666300e+00  3.16392700e+00  7.86827240e+00  1.88128850e+00
  5.44249300e-01  7.86827240e+00  1.88128850e+00  5.44249300e-01  1.68714400e-01
  1.68714400e-01  8.00000000e-01  4.38000000e-02  4.38000000e-02  3.04752490e+03
  4.57369510e+02  1.03948690e+02  2.92101550e+01  9.28666300e+00  3.16392700e+00
  7.86827240e+00  1.88128850e+00  5.44249300e-01  7.86827240e+00  1.88128850e+00
  5.44249300e-01  1.68714400e-01  1.68714400e-01  8.00000000e-01  4.38000000e-02
  4.38000000e-02  1.87311370e+01  2.82539370e+00  6.40121700e-01  1.61277800e-01
  1.87311370e+01  2.82539370e+00  6.40121700e-01  1.61277800e-01  4.17351100e+03
  6.27457900e+02  1.42902100e+02  4.02343300e+01  1.28202100e+01  4.39043700e+00
  1.16263580e+01  2.71628000e+00  7.72218000e-01  1.16263580e+01  2.71628000e+00
  7.72218000e-01  2.12031300e-01  2.12031300e-01  8.00000000e-01  6.39000000e-02
  6.39000000e-02  3.04752490e+03  4.57369510e+02  1.03948690e+02  2.92101550e+01
  9.28666300e+00  3.16392700e+00  7.86827240e+00  1.88128850e+00  5.44249300e-01
  7.86827240e+00  1.88128850e+00  5.44249300e-01  1.68714400e-01  1.68714400e-01
  8.00000000e-01  4.38000000e-02  4.38000000e-02  3.04752490e+03  4.57369510e+02
  1.03948690e+02  2.92101550e+01  9.28666300e+00  3.16392700e+00  7.86827240e+00
  1.88128850e+00  5.44249300e-01  7.86827240e+00  1.88128850e+00  5.44249300e-01
  1.68714400e-01  1.68714400e-01  8.00000000e-01  4.38000000e-02  4.38000000e-02
  3.04752490e+03  4.57369510e+02  1.03948690e+02  2.92101550e+01  9.28666300e+00
  3.16392700e+00  7.86827240e+00  1.88128850e+00  5.44249300e-01  7.86827240e+00
  1.88128850e+00  5.44249300e-01  1.68714400e-01  1.68714400e-01  8.00000000e-01
  4.38000000e-02  4.38000000e-02  3.04752490e+03  4.57369510e+02  1.03948690e+02
  2.92101550e+01  9.28666300e+00  3.16392700e+00  7.86827240e+00  1.88128850e+00
  5.44249300e-01  7.86827240e+00  1.88128850e+00  5.44249300e-01  1.68714400e-01
  1.68714400e-01  8.00000000e-01  4.38000000e-02  4.38000000e-02  3.04752490e+03
  4.57369510e+02  1.03948690e+02  2.92101550e+01  9.28666300e+00  3.16392700e+00
  7.86827240e+00  1.88128850e+00  5.44249300e-01  7.86827240e+00  1.88128850e+00
  5.44249300e-01  1.68714400e-01  1.68714400e-01  8.00000000e-01  4.38000000e-02
  4.38000000e-02  1.87311370e+01  2.82539370e+00  6.40121700e-01  1.61277800e-01
  1.87311370e+01  2.82539370e+00  6.40121700e-01  1.61277800e-01  1.87311370e+01
  2.82539370e+00  6.40121700e-01  1.61277800e-01  3.04752490e+03  4.57369510e+02
  1.03948690e+02  2.92101550e+01  9.28666300e+00  3.16392700e+00  7.86827240e+00
  1.88128850e+00  5.44249300e-01  7.86827240e+00  1.88128850e+00  5.44249300e-01
  1.68714400e-01  1.68714400e-01  8.00000000e-01  4.38000000e-02  4.38000000e-02
  1.87311370e+01  2.82539370e+00  6.40121700e-01  1.61277800e-01  1.87311370e+01
  2.82539370e+00  6.40121700e-01  1.61277800e-01  1.87311370e+01  2.82539370e+00
  6.40121700e-01  1.61277800e-01  1.87311370e+01  2.82539370e+00  6.40121700e-01
  1.61277800e-01  1.87311370e+01  2.82539370e+00  6.40121700e-01  1.61277800e-01
  1.87311370e+01  2.82539370e+00  6.40121700e-01  1.61277800e-01  1.87311370e+01
  2.82539370e+00  6.40121700e-01  1.61277800e-01  2.51801000e+04  3.78035000e+03
  8.60474000e+02  2.42145000e+02  7.73349000e+01  2.62470000e+01  4.91765000e+02
  1.16984000e+02  3.74153000e+01  1.37834000e+01  5.45215000e+00  2.22588000e+00
  4.91765000e+02  1.16984000e+02  3.74153000e+01  1.37834000e+01  5.45215000e+00
  2.22588000e+00  3.18649000e+00  1.14427000e+00  4.20377000e-01  3.18649000e+00
  1.14427000e+00  4.20377000e-01  1.42657000e-01  1.42657000e-01  7.50000000e-01
  4.83000000e-02  4.83000000e-02
Contraction coefficients                   R   N=         247
  1.83470016e-03  1.40373012e-02  6.88426061e-02  2.32184421e-01  4.67941342e-01
  3.62312032e-01 -1.19332409e-01 -1.60854212e-01  1.14345648e+00  6.89990956e-02
  3.16423980e-01  7.44308252e-01  1.00000000e+00  1.00000000e+00  1.00000000e+00
  1.00000000e+00  1.00000000e+00  1.83470016e-03  1.40373012e-02  6.88426061e-02
  2.32184421e-01  4.67941342e-01  3.62312032e-01 -1.19332409e-01 -1.60854212e-01
  1.14345648e+00  6.89990956e-02  3.16423980e-01  7.44308252e-01  1.00000000e+00
  1.00000000e+00  1.00000000e+00  1.00000000e+00  1.00000000e+00  1.83470016e-03
  1.40373012e-02  6.88426061e-02  2.32184421e-01  4.67941342e-01  3.62312032e-01
 -1.19332409e-01 -1.60854212e-01  1.14345648e+00  6.89990956e-02  3.16423980e-01
  7.44308252e-01  1.00000000e+00  1.00000000e+00  1.00000000e+00  1.00000000e+00
  1.00000000e+00  3.34945995e-02  2.34726947e-01  8.13757318e-01  1.00000000e+00
  3.34945995e-02  2.34726947e-01  8.13757318e-01  1.00000000e+00  1.83479944e-03
  1.39949958e-02  6.85869792e-02  2.32240930e-01  4.69069858e-01  3.60454891e-01
 -1.14961023e-01 -1.69118034e-01  1.14585223e+00  6.75800232e-02  3.23907111e-01
  7.40895255e-01  1.00000000e+00  1.00000000e+00  1.00000000e+00  1.00000000e+00
  1.00000000e+00  1.83470016e-03  1.40373012e-02  6.88426061e-02  2.32184421e-01
  4.67941342e-01  3.62312032e-01 -1.19332409e-01 -1.60854212e-01  1.14345648e+00
  6.89990956e-02  3.16423980e-01  7.44308252e-01  1.00000000e+00  1.00000000e+00
  1.00000000e+00  1.00000000e+00  1.00000000e+00  1.83470016e-03  1.40373012e-02
  6.88426061e-02  2.32184421e-01  4.67941342e-01  3.62312032e-01 -1.19332409e-01
 -1.60854212e-01  1.14345648e+00  6.89990956e-02  3.16423980e-01  7.44308252e-01
  1.00000000e+00  1.00000000e+00  1.00000000e+00  1.00000000e+00  1.00000000e+00
  1.83470016e-03  1.40373012e-02  6.88426061e-02  2.32184421e-01  4.67941342e-01
  3.62312032e-01 -1.19332409e-01 -1.60854212e-01  1.14345648e+00  6.89990956e-02
  3.16423980e-01  7.44308252e-01  1.00000000e+00  1.00000000e+00  1.00000000e+00
  1.00000000e+00  1.00000000e+00  1.83470016e-03  1.40373012e-02  6.88426061e-02
  2.32184421e-01  4.67941342e-01  3.62312032e-01 -1.19332409e-01 -1.60854212e-01
  1.14345648e+00  6.89990956e-02  3.16423980e-01  7.44308252e-01  1.00000000e+00
  1.00000000e+00  1.00000000e+00  1.00000000e+00  1.00000000e+00  1.83470016e-03
  1.40373012e-02  6.88426061e-02  2.32184421e-01  4.67941342e-01  3.62312032e-01
 -1.19332409e-01 -1.60854212e-01  1.14345648e+00  6.89990956e-02  3.16423980e-01
  7.44308252e-01  1.00000000e+00  1.00000000e+00  1.00000000e+00  1.00000000e+00
  1.00000000e+00  3.34945995e-02  2.34726947e-01  8.13757318e-01  1.00000000e+00
  3.34945995e-02  2.34726947e-01  8.13757318e-01  1.00000000e+00  3.34945995e-02
  2.34726947e-01  8.13757318e-01  1.00000000e+00  1.83470016e-03  1.40373012e-02
  6.88426061e-02  2.32184421e-01  4.67941342e-01  3.62312032e-01 -1.19332409e-01
 -1.60854212e-01  1.14345648e+00  6.89990956e-02  3.16423980e-01  7.44308252e-01
  1.00000000e+00  1.00000000e+00  1.00000000e+00  1.00000000e+00  1.00000000e+00
  3.34945995e-02  2.34726947e-01  8.13757318e-01  1.00000000e+00  3.34945995e-02
  2.34726947e-01  8.13757318e-01  1.00000000e+00  3.34945995e-02  2.34726947e-01
  8.13757318e-01  1.00000000e+00  3.34945995e-02  2.34726947e-01  8.13757318e-01
  1.00000000e+00  3.34945995e-02  2.34726947e-01  8.13757318e-01  1.00000000e+00
  3.34945995e-02  2.34726947e-01  8.13757318e-01  1.00000000e+00  3.34945995e-02
  2.34726947e-01  8.13757318e-01  1.00000000e+00  1.83300031e-03  1.40340024e-02
  6.90970118e-02  2.37452040e-01  4.83034082e-01  3.39856058e-01 -2.29740199e-03
 -3.07140266e-02 -1.12528097e-01  4.50160390e-02  5.89353510e-01  4.65206403e-01
  3.98940055e-03  3.03180042e-02  1.29880018e-01  3.27951045e-01  4.53527062e-01
  2.52154035e-01 -2.51831288e-01  6.15893150e-02  1.06018542e+00 -1.42990127e-02
  3.23572288e-01  7.43507661e-01  1.00000000e+00  1.00000000e+00  1.00000000e+00
  1.00000000e+00  1.00000000e+00
Coordinates of each shell                  R   N=         342
  1.16607816e+00  2.18771953e-01  5.78572641e-01  1.16607816e+00  2.18771953e-01
  5.78572641e-01  1.16607816e+00  2.18771953e-01  5.78572641e-01  1.16607816e+00
  2.18771953e-01  5.78572641e-01  1.16607816e+00  2.18771953e-01  5.78572641e-01
  1.16607816e+00  2.18771953e-01  5.78572641e-01  1.16607816e+00  2.18771953e-01
  5.78572641e-01  1.16607816e+00  2.18771953e-01  5.78572641e-01 -2.86602820e-01
 -1.15799338e+00  2.61878774e+00 -2.86602820e-01 -1.15799338e+00  2.61878774e+00
 -2.86602820e-01 -1.15799338e+00  2.61878774e+00 -2.86602820e-01 -1.15799338e+00
  2.61878774e+00 -2.86602820e-01 -1.15799338e+00  2.61878774e+00 -2.86602820e-01
 -1.15799338e+00  2.61878774e+00 -2.86602820e-01 -1.15799338e+00  2.61878774e+00
 -2.86602820e-01 -1.15799338e+00  2.61878774e+00 -3.11729605e+00 -3.83591803e-01
  2.88603710e+00 -3.11729605e+00 -3.83591803e-01  2.88603710e+00 -3.11729605e+00
 -3.83591803e-01  2.88603710e+00 -3.11729605e+00 -3.83591803e-01  2.88603710e+00
 -3.11729605e+00 -3.83591803e-01  2.88603710e+00 -3.11729605e+00 -3.83591803e-01
  2.88603710e+00 -3.11729605e+00 -3.83591803e-01  2.88603710e+00 -3.11729605e+00
 -3.83591803e-01  2.88603710e+00  6.47241380e-01 -8.36958056e-01  4.44521206e+00
  6.47241380e-01 -8.36958056e-01  4.44521206e+00 -2.15150684e-01 -3.19731408e+00
  2.25792539e+00 -2.15150684e-01 -3.19731408e+00  2.25792539e+00 -4.52829064e+00
 -2.03515806e+00  4.61317864e+00 -4.52829064e+00 -2.03515806e+00  4.61317864e+00
 -4.52829064e+00 -2.03515806e+00  4.61317864e+00 -4.52829064e+00 -2.03515806e+00
  4.61317864e+00 -4.52829064e+00 -2.03515806e+00  4.61317864e+00 -4.52829064e+00
 -2.03515806e+00  4.61317864e+00 -4.52829064e+00 -2.03515806e+00  4.61317864e+00
 -4.52829064e+00 -2.03515806e+00  4.61317864e+00  2.75499140e+00  2.25783961e+00
  1.19018650e+00  2.75499140e+00  2.25783961e+00  1.19018650e+00  2.75499140e+00
  2.25783961e+00  1.19018650e+00  2.75499140e+00  2.25783961e+00  1.19018650e+00
  2.75499140e+00  2.25783961e+00  1.19018650e+00  2.75499140e+00  2.25783961e+00
  1.19018650e+00  2.75499140e+00  2.25783961e+00  1.19018650e+00  2.75499140e+00
  2.25783961e+00  1.19018650e+00  4.10092461e+00  3.58945221e+00 -6.44205863e-01
  4.10092461e+00  3.58945221e+00 -6.44205863e-01  4.10092461e+00  3.58945221e+00
 -6.44205863e-01  4.10092461e+00  3.58945221e+00 -6.44205863e-01  4.10092461e+00
  3.58945221e+00 -6.44205863e-01  4.10092461e+00  3.58945221e+00 -6.44205863e-01
  4.10092461e+00  3.58945221e+00 -6.44205863e-01  4.10092461e+00  3.58945221e+00
 -6.44205863e-01  3.89218074e+00  2.89695844e+00 -3.18265449e+00  3.89218074e+00
  2.89695844e+00 -3.18265449e+00  3.89218074e+00  2.89695844e+00 -3.18265449e+00
  3.89218074e+00  2.89695844e+00 -3.18265449e+00  3.89218074e+00  2.89695844e+00
 -3.18265449e+00  3.89218074e+00  2.89695844e+00 -3.18265449e+00  3.89218074e+00
  2.89695844e+00 -3.18265449e+00  3.89218074e+00  2.89695844e+00 -3.18265449e+00
  2.34447002e+00  8.72453662e-01 -3.86000495e+00  2.34447002e+00  8.72453662e-01
 -3.86000495e+00  2.34447002e+00  8.72453662e-01 -3.86000495e+00  2.34447002e+00
  8.72453662e-01 -3.86000495e+00  2.34447002e+00  8.72453662e-01 -3.86000495e+00
  2.34447002e+00  8.72453662e-01 -3.86000495e+00  2.34447002e+00  8.72453662e-01
 -3.86000495e+00  2.34447002e+00  8.72453662e-01 -3.86000495e+00  1.01413858e+00
 -4.30609226e-01 -1.99117352e+00  1.01413858e+00 -4.30609226e-01 -1.99117352e+00
  1.01413858e+00 -4.30609226e-01 -1.99117352e+00  1.01413858e+00 -4.30609226e-01
 -1.99117352e+00  1.01413858e+00 -4.30609226e-01 -1.99117352e+00  1.01413858e+00
 -4.30609226e-01 -1.99117352e+00  1.01413858e+00 -4.30609226e-01 -1.99117352e+00
  1.01413858e+00 -4.30609226e-01 -1.99117352e+00 -3.78865404e+00 -1.95628733e+00
  6.39187081e+00 -3.78865404e+00 -1.95628733e+00  6.39187081e+00 -4.43834078e+00
 -3.87237017e+00  4.04395238e+00 -4.43834078e+00 -3.87237017e+00  4.04395238e+00
  5.31106397e+00  5.15389985e+00 -9.19658850e-02  5.31106397e+00  5.15389985e+00
 -9.19658850e-02 -3.42947435e+00  2.35561041e+00  3.76048482e+00 -3.42947435e+00
  2.35561041e+00  3.76048482e+00 -3.42947435e+00  2.35561041e+00  3.76048482e+00
 -3.42947435e+00  2.35561041e+00  3.76048482e+00 -3.42947435e+00  2.35561041e+00
  3.76048482e+00 -3.42947435e+00  2.35561041e+00  3.76048482e+00 -3.42947435e+00
  2.35561041e+00  3.76048482e+00 -3.42947435e+00  2.35561041e+00  3.76048482e+00
 -4.01195749e+00 -5.85198161e-01  1.02761710e+00 -4.01195749e+00 -5.85198161e-01
  1.02761710e+00 -2.59823874e+00  2.62749008e+00  5.64563878e+00 -2.59823874e+00
  2.62749008e+00  5.64563878e+00 -5.43770877e+00  2.83677305e+00  3.87565136e+00
 -5.43770877e+00  2.83677305e+00  3.87565136e+00 -2.50420939e+00  3.67667979e+00
  2.46456137e+00 -2.50420939e+00  3.67667979e+00  2.46456137e+00  2.93157762e+00
  2.79714137e+00  3.16565240e+00  2.93157762e+00  2.79714137e+00  3.16565240e+00
  4.93064559e+00  3.91309954e+00 -4.63373228e+00  4.93064559e+00  3.91309954e+00
 -4.63373228e+00  2.16699737e+00  2.93770556e-01 -5.81971021e+00  2.16699737e+00
  2.93770556e-01 -5.81971021e+00 -8.80823082e-01 -3.00449856e+00 -2.96898250e+00
 -8.80823082e-01 -3.00449856e+00 -2.96898250e+00 -8.80823082e-01 -3.00449856e+00
 -2.96898250e+00 -8.80823082e-01 -3.00449856e+00 -2.96898250e+00 -8.80823082e-01
 -3.00449856e+00 -2.96898250e+00 -8.80823082e-01 -3.00449856e+00 -2.96898250e+00
 -8.80823082e-01 -3.00449856e+00 -2.96898250e+00 -8.80823082e-01 -3.00449856e+00
 -2.96898250e+00 -8.80823082e-01 -3.00449856e+00 -2.96898250e+00 -8.80823082e-01
 -3.00449856e+00 -2.96898250e+00
Total Energy                               R     -8.651499313756813e+02
Alpha Orbital Energies                     R   N=         237
 -1.01557209e+02 -1.43238295e+01 -1.02607426e+01 -1.02229659e+01 -1.02200312e+01
 -1.02121759e+01 -1.02095853e+01 -1.02084570e+01 -1.02073612e+01 -1.01977190e+01
 -1.01776866e+01 -9.47221558e+00 -7.23614227e+00 -7.22668012e+00 -7.22634378e+00
 -9.01775097e-01 -8.90214136e-01 -8.42863339e-01 -7.92642769e-01 -7.47331787e-01
 -7.35807237e-01 -6.92461461e-01 -6.20652381e-01 -6.09146250e-01 -5.81092123e-01
 -5.22047252e-01 -5.02530767e-01 -4.82923408e-01 -4.71341741e-01 -4.61527538e-01
 -4.38903109e-01 -4.36791705e-01 -4.18976807e-01 -4.02525650e-01 -3.96674990e-01
 -3.77888614e-01 -3.66185186e-01 -3.64694793e-01 -3.53352103e-01 -3.45040117e-01
 -3.35079067e-01 -3.17971710e-01 -2.69321969e-01 -2.55955755e-01 -2.37829614e-01
 -2.72509955e-02 -2.60412796e-02 -2.07089296e-03 -1.94184400e-03  1.25665168e-02
  2.24622220e-02  3.00342598e-02  3.25400990e-02  4.05007542e-02  4.62653317e-02
  5.41362252e-02  6.04568606e-02  6.45081581e-02  6.90536850e-02  7.53030443e-02
  9.03208629e-02  9.28468011e-02  9.49435353e-02  1.04610167e-01  1.08944212e-01
  1.13672140e-01  1.16899585e-01  1.23735418e-01  1.27581662e-01  1.29794573e-01
  1.38285416e-01  1.38773828e-01  1.51024841e-01  1.55156165e-01  1.61704765e-01
  1.71923391e-01  1.73945908e-01  1.79281237e-01  1.87859545e-01  1.88324466e-01
  1.94023161e-01  1.96847382e-01  2.02949038e-01  2.10325503e-01  2.12088837e-01
  2.16980143e-01  2.21150085e-01  2.24404067e-01  2.27580964e-01  2.32944818e-01
  2.34431332e-01  2.37697082e-01  2.47001854e-01  2.50109561e-01  2.65634449e-01
  2.66028707e-01  2.72064504e-01  2.78439164e-01  2.90164534e-01  2.92241667e-01
  2.97942818e-01  3.01245458e-01  3.07709633e-01  3.19233004e-01  3.31760733e-01
  3.45402071e-01  3.47444207e-01  3.59522623e-01  3.70574114e-01  3.78654755e-01
  3.86253186e-01  3.91557278e-01  4.61445279e-01  5.24422751e-01  5.51548387e-01
  6.06707769e-01  6.19767048e-01  6.31868628e-01  6.47999803e-01  6.60145797e-01
  6.65861874e-01  6.68196973e-01  6.78543623e-01  6.94643038e-01  6.97178623e-01
  7.04542168e-01  7.15474396e-01  7.31327990e-01  7.33339558e-01  7.47102159e-01
  7.55191573e-01  7.62115285e-01  7.71380776e-01  7.85270852e-01  8.05165772e-01
  8.08089445e-01  8.17979613e-01  8.35888575e-01  8.60488150e-01  8.77667200e-01
  8.97846598e-01  9.09119342e-01  9.21791176e-01  9.39194087e-01  9.47605275e-01
  9.56197050e-01  9.71792088e-01  9.80101468e-01  9.97281775e-01  9.99057839e-01
  1.01128474e+00  1.02615103e+00  1.03894726e+00  1.04905527e+00  1.05984608e+00
  1.08380887e+00  1.09486779e+00  1.09972390e+00  1.13801119e+00  1.14048314e+00
  1.14966659e+00  1.16762684e+00  1.18103159e+00  1.19457584e+00  1.19966715e+00
  1.21587998e+00  1.24358746e+00  1.25659567e+00  1.29577163e+00  1.35005402e+00
  1.38076853e+00  1.40735347e+00  1.43625797e+00  1.44752453e+00  1.45946064e+00
  1.46787743e+00  1.47893911e+00  1.51026381e+00  1.55679707e+00  1.56966149e+00
  1.62465561e+00  1.63758742e+00  1.72584318e+00  1.78863079e+00  1.80474148e+00
  1.82969022e+00  1.85530185e+00  1.87575314e+00  1.88434846e+00  1.90373752e+00
  1.94775907e+00  1.96357547e+00  1.99393604e+00  2.02002922e+00  2.05677451e+00
  2.07537082e+00  2.09184053e+00  2.10973196e+00  2.12737867e+00  2.16118276e+00
  2.17215964e+00  2.17870694e+00  2.20790470e+00  2.22726087e+00  2.24768794e+00
  2.28109865e+00  2.29036763e+00  2.32995329e+00  2.34408224e+00  2.39940767e+00
  2.41869409e+00  2.52205233e+00  2.56125161e+00  2.59262967e+00  2.59713023e+00
  2.63370845e+00  2.64446469e+00  2.71622570e+00  2.73895406e+00  2.74983256e+00
  2.75668975e+00  2.78047148e+00  2.83649803e+00  2.95617370e+00  3.04664039e+00
  3.36261453e+00  3.99092491e+00  4.21187662e+00  4.24594598e+00  4.26323967e+00
  4.29337681e+00  4.35849969e+00  4.38185583e+00  4.40669915e+00  4.48495488e+00
  4.62228197e+00  4.70281106e+00
Alpha MO coefficients                      R   N=       56169
 -2.21104499e-06  1.78488142e-05  8.27437707e-06  9.74248669e-06  1.22725895e-05
 -6.02346932e-05 -5.60284461e-06 -1.81512965e-05 -9.80839811e-05 -1.80424094e-05
 -2.74603691e-05 -1.00223044e-05 -1.08975572e-05 -1.66615783e-05 -2.15463893e-05
 -4.26441522e-04  3.32411152e-04  3.32806137e-04 -3.66094181e-04 -4.27273306e-06
 -6.78924822e-06 -2.70600685e-06  2.99492463e-06  9.83859044e-06  1.83420820e-04
 -2.28504154e-05  9.42106556e-06 -1.02615126e-05 -2.35677919e-06 -4.93717599e-06
 -2.37613999e-05 -5.20195048e-07 -2.28435611e-06 -6.51864348e-06  1.19837168e-03
  2.54298104e-05  1.91348075e-04 -1.22154656e-04  4.18779246e-06  1.34714593e-05
  5.95757468e-06 -5.26069786e-06 -8.18027787e-06 -1.01091336e-04 -7.56757526e-05
  4.76742626e-05  2.71409017e-05  2.58361985e-06  1.09096740e-05  8.91928791e-06
  2.19151706e-06  1.04515515e-06  1.68981863e-07 -6.83639673e-04 -4.77918012e-05
 -2.34172035e-04 -1.07580864e-04 -1.23950143e-06 -2.40251091e-05 -7.51523482e-06
 -7.94382593e-05 -1.85309717e-06 -5.62651635e-06 -1.10159678e-06  9.84378624e-07
  3.09695057e-06  3.42424460e-05  1.49893141e-05 -1.26527194e-05 -2.04602504e-05
 -4.31683172e-06 -5.86133697e-06 -3.08331822e-06  3.21164203e-07 -3.15709170e-06
  2.74460272e-06 -1.89636057e-05 -1.25530097e-05  3.13511438e-05  3.48879741e-05
 -3.68206695e-06 -1.86933374e-05  5.78988547e-07  1.80129975e-06  4.86456176e-06
  1.48371551e-04 -4.15417069e-05 -6.52798125e-05 -7.40403610e-05 -9.50170599e-07
  3.75592075e-06 -6.65954402e-06  1.29579568e-05 -2.43332640e-06 -2.09976952e-06
  1.96387651e-04  1.08125481e-04  5.84813991e-05 -1.24531291e-04  1.60822016e-06
  1.14047402e-05  8.58269058e-07  4.53373248e-07  2.26520730e-07 -1.17827947e-04
  5.51867675e-05  7.73368654e-05  4.16958276e-05  8.46166249e-07 -3.43581664e-07
 -3.34810776e-06 -2.95817899e-06  9.55897233e-07  7.65161677e-08 -7.06636153e-04
  2.39749300e-05  6.75196304e-05  2.87824761e-05 -3.13881067e-06 -1.55562050e-05
  2.19728253e-06  1.87491565e-06 -3.55506128e-06  1.24546232e-04 -5.31190721e-05
 -5.34796714e-05  7.07646029e-05 -3.62868812e-06  1.13310721e-06 -3.49761642e-07
  8.17806675e-06  4.86946784e-06  7.50575828e-06 -1.30722097e-04  6.93069702e-05
  1.03394978e-04  1.90061389e-04 -4.12739369e-06  8.55508834e-06  1.18096682e-05
  1.42823297e-05 -3.91782889e-06 -1.42333884e-05 -7.94045133e-06 -7.52341035e-06
  1.65291556e-06 -2.99724994e-05 -3.62265545e-05  1.74020702e-06 -1.81414988e-05
 -6.85841134e-08  4.41592143e-06  1.72370729e-03  5.07132300e-05  9.50890549e-05
  1.82304830e-04 -2.55612994e-06  8.32713898e-05 -2.70440629e-05 -3.65066797e-05
 -1.26901593e-05 -1.50663514e-05 -5.34312405e-05 -8.97246309e-05 -8.65692538e-05
 -3.13224173e-05 -4.48489358e-05  7.33238635e-06 -2.04820217e-05 -1.94687799e-05
 -1.94602176e-05 -8.39653643e-04 -6.96581508e-04 -7.92271553e-04  2.61831964e-04
  1.17428777e-06  2.00927588e-06 -7.03732855e-06  2.85477754e-06 -4.60512622e-06
 -3.22500594e-05 -7.82166123e-07 -5.73620184e-07  7.73333168e-07  2.30904688e-06
  2.71418026e-06 -2.15646546e-06  9.48286397e-06  3.77554731e-06 -1.32568848e-05
 -2.89941860e-06 -3.92924502e-06 -6.41158244e-07 -1.94216576e-06 -1.98564765e-06
 -1.70678416e-07  4.70162943e-04  1.70892956e-05 -9.34616142e-05 -3.01705605e-05
  1.15112787e-05 -3.61034566e-05  4.48762461e-07  6.77882929e-06  1.35783029e-06
 -4.01240302e-07 -2.40466524e-06 -3.86200304e-06  2.97629699e-06  2.94721563e-05
  5.57337925e-06  3.11296923e-05 -5.04022939e-06 -1.09028634e-05  9.95997386e-01
  1.51496356e-02  2.60490020e-05  3.57522274e-05  1.46307726e-05 -2.10668904e-02
 -7.79490146e-06 -1.19222145e-05 -3.51022263e-06  1.85678072e-03 -4.76915451e-05
 -6.56524489e-05 -3.36562920e-05  7.52104909e-03  7.51678694e-03  7.52383182e-03
 -9.29239632e-06 -1.87857296e-06 -3.77185204e-06 -1.07394686e-03 -3.21102951e-05
 -9.04012073e-05 -1.32638871e-04  1.48254099e-06  1.48722530e-05 -6.64224485e-06
 -7.21279094e-06  1.53071242e-05 -9.29624731e-06  3.25202567e-04  2.57888732e-04
 -5.89907499e-04 -4.37320823e-06 -8.17935730e-07 -6.87063241e-06 -1.24174865e-05
  1.73495780e-05  1.62697667e-05  6.72091332e-03 -2.06361052e-03 -3.37697154e-03