Generated by Psi4
     FORCE                           RHF                       TESTBAS
Number of atoms                            I               34
Charge                                     I                0
Multiplicity                               I                1
Number of electrons                        I              114
Number of alpha electrons                  I               57
Number of beta electrons                   I               57
Number of basis functions                  I              323
Number of independent functions            I              323
Atomic numbers                             I   N=          34
           6           6           6           1           1           7
           6           6           6           6           6           1
           1           1           8           6           1           1
           1           6           6           1           1           1
           1           1           1           8           6           1
           1           1           1           1
Nuclear charges                            R   N=          34
  6.00000000e+00  6.00000000e+00  6.00000000e+00  1.00000000e+00  1.00000000e+00
  7.00000000e+00  6.00000000e+00  6.00000000e+00  6.00000000e+00  6.00000000e+00
  6.00000000e+00  1.00000000e+00  1.00000000e+00  1.00000000e+00  8.00000000e+00
  6.00000000e+00  1.00000000e+00  1.00000000e+00  1.00000000e+00  6.00000000e+00
  6.00000000e+00  1.00000000e+00  1.00000000e+00  1.00000000e+00  1.00000000e+00
  1.00000000e+00  1.00000000e+00  8.00000000e+00  6.00000000e+00  1.00000000e+00
  1.00000000e+00  1.00000000e+00  1.00000000e+00  1.00000000e+00
Current cartesian coordinates              R   N=         102
 -7.40098899e-01 -1.28065772e+00  1.36804920e+00 -2.06827468e+00 -2.88250425e+00
  3.32536235e+00 -4.53803907e+00 -1.67201645e+00  4.32756967e+00 -8.05354796e-01
 -3.22074492e+00  4.93473656e+00 -2.52111520e+00 -4.73512191e+00  2.50361858e+00
 -5.88361873e+00 -3.12011009e+00  6.26582303e+00  7.83082701e-01  7.74829366e-01
  2.08183895e+00  1.95657717e+00  2.26486223e+00  2.38506064e-01  1.66115288e+00
  1.77715670e+00 -2.34528700e+00  1.33162436e-01 -2.75547395e-01 -3.05921032e+00
 -1.03931349e+00 -1.76680500e+00 -1.21660502e+00 -2.21022562e+00 -3.35904132e+00
 -1.76486201e+00 -4.78063152e+00 -3.36613274e+00  7.82451190e+00 -6.34456055e+00
 -4.87580885e+00  5.62312336e+00 -1.04437558e-01 -6.85482780e-01 -5.61750572e+00
 -1.68512614e+00 -2.67990043e+00 -6.45844654e+00 -1.61799774e+00 -2.61987418e+00
 -8.51989218e+00 -3.64467689e+00 -2.41437601e+00 -5.82648798e+00 -9.95184309e-01
 -4.52536065e+00 -5.80368949e+00  2.98557810e+00  3.39062850e+00 -4.30041237e+00
  5.42016475e+00  2.17941493e+00 -5.34192619e+00  3.44700175e+00  5.22578636e+00
 -3.45096686e+00  1.69525569e+00  3.76452359e+00 -5.87767797e+00  6.78748704e+00
  1.83464556e+00 -3.82306332e+00  6.31363515e+00  3.42208516e+00 -6.74076960e+00
  5.00900463e+00  3.70448826e-01 -6.25846001e+00  3.12922526e+00  3.85597419e+00
  7.86240886e-01  1.01817077e+00  1.18658521e+00  4.64133117e+00  2.57566047e+00
  3.20067659e+00  5.48075302e+00  4.54067275e+00  2.95092258e+00  4.85985760e+00
  2.49877781e+00  3.15001145e+00  7.54209460e+00  1.87079080e+00  5.03554317e+00
  4.81323332e+00 -5.84180331e+00 -1.36718842e+00  2.74422494e+00 -4.10989167e+00
  1.93428276e-01  5.11529148e+00
Integer atomic weights                     I   N=          34
          12          12          12           1           1          14
          12          12          12          12          12           1
           1           1          15          12           1           1
           1          12          12           1           1           1
           1           1           1          15          12           1
           1           1           1           1
Real atomic weights                        R   N=          34
  1.20000000e+01  1.20000000e+01  1.20000000e+01  1.00782503e+00  1.00782503e+00
  1.40030740e+01  1.20000000e+01  1.20000000e+01  1.20000000e+01  1.20000000e+01
  1.20000000e+01  1.00782503e+00  1.00782503e+00  1.00782503e+00  1.59949146e+01
  1.20000000e+01  1.00782503e+00  1.00782503e+00  1.00782503e+00  1.20000000e+01
  1.20000000e+01  1.00782503e+00  1.00782503e+00  1.00782503e+00  1.00782503e+00
  1.00782503e+00  1.00782503e+00  1.59949146e+01  1.20000000e+01  1.00782503e+00
  1.00782503e+00  1.00782503e+00  1.00782503e+00  1.00782503e+00
Number of primitive shells                 I              331
Number of contracted shells                I              158
Pure/Cartesian d shells                    I                1
Pure/Cartesian f shells                    I                1
Highest angular momentum                   I                2
Largest degree of contraction              I                6
Shell types                                I   N=         158
           0           0           1           0           1           2
           0           1           0           0           1           0
           1           2           0           1           0           0
           1           0           1           2           0           1
           0           0           0           0           0           0
           1           0           1           2           0           1
           0           0           1           0           1           2
           0           1           0           0           1           0
           1           2           0           1           0           0
           1           0           1           2           0           1
           0           0           1           0           1           2
           0           1           0           0           1           0
           1           2           0           1           0           0
           0           0           0           0           0           0
           1           0           1           2           0           1
           0           0           1           0           1           2
           0           1           0           0           0           0
           0           0           0           0           1           0
           1           2           0           1           0           0
           1           0           1           2           0           1
           0           0           0           0           0           0
           0           0           0           0           0           0
           0           0           1           0           1           2
           0           1           0           0           1           0
           1           2           0           1           0           0
           0           0           0           0           0           0
           0           0
Number of primitives per shell             I   N=         158
           6           3           3           1           1           1
           1           1           6           3           3           1
           1           1           1           1           6           3
           3           1           1           1           1           1
           3           1           3           1           6           3
           3           1           1           1           1           1
           6           3           3           1           1           1
           1           1           6           3           3           1
           1           1           1           1           6           3
           3           1           1           1           1           1
           6           3           3           1           1           1
           1           1           6           3           3           1
           1           1           1           1           3           1
           3           1           3           1           6           3
           3           1           1           1           1           1
           6           3           3           1           1           1
           1           1           3           1           3           1
           3           1           6           3           3           1
           1           1           1           1           6           3
           3           1           1           1           1           1
           3           1           3           1           3           1
           3           1           3           1           3           1
           6           3           3           1           1           1
           1           1           6           3           3           1
           1           1           1           1           3           1
           3           1           3           1           3           1
           3           1
Shell to atom map                          I   N=         158
           1           1           1           1           1           1
           1           1           2           2           2           2
           2           2           2           2           3           3
           3           3           3           3           3           3
           4           4           5           5           6           6
           6           6           6           6           6           6
           7           7           7           7           7           7
           7           7           8           8           8           8
           8           8           8           8           9           9
           9           9           9           9           9           9
          10          10          10          10          10          10
          10          10          11          11          11          11
          11          11          11          11          12          12
          13          13          14          14          15          15
          15          15          15          15          15          15
          16          16          16          16          16          16
          16          16          17          17          18          18
          19          19          20          20          20          20
          20          20          20          20          21          21
          21          21          21          21          21          21
          22          22          23          23          24          24
          25          25          26          26          27          27
          28          28          28          28          28          28
          28          28          29          29          29          29
          29          29          29          29          30          30
          31          31          32          32          33          33
          34          34
Primitive exponents                        R   N=         331
  3.04752490e+03  4.57369510e+02  1.03948690e+02  2.92101550e+01  9.28666300e+00
  3.16392700e+00  7.86827240e+00  1.88128850e+00  5.44249300e-01  7.86827240e+00
  1.88128850e+00  5.44249300e-01  1.68714400e-01  1.68714400e-01  8.00000000e-01
  4.38000000e-02  4.38000000e-02  3.04752490e+03  4.57369510e+02  1.03948690e+02
  2.92101550e+01  9.28666300e+00  3.16392700e+00  7.86827240e+00  1.88128850e+00
  5.44249300e-01  7.86827240e+00  1.88128850e+00  5.44249300e-01  1.68714400e-01
  1.68714400e-01  8.00000000e-01  4.38000000e-02  4.38000000e-02  3.04752490e+03
  4.57369510e+02  1.03948690e+02  2.92101550e+01  9.28666300e+00  3.16392700e+00
  7.86827240e+00  1.88128850e+00  5.44249300e-01  7.86827240e+00  1.88128850e+00
  5.44249300e-01  1.68714400e-01  1.68714400e-01  8.00000000e-01  4.38000000e-02
  4.38000000e-02  1.87311370e+01  2.82539370e+00  6.40121700e-01  1.61277800e-01
  1.87311370e+01  2.82539370e+00  6.40121700e-01  1.61277800e-01  4.17351100e+03
  6.27457900e+02  1.42902100e+02  4.02343300e+01  1.28202100e+01  4.39043700e+00
  1.16263580e+01  2.71628000e+00  7.72218000e-01  1.16263580e+01  2.71628000e+00
  7.72218000e-01  2.12031300e-01  2.12031300e-01  8.00000000e-01  6.39000000e-02
  6.39000000e-02  3.04752490e+03  4.57369510e+02  1.03948690e+02  2.92101550e+01
  9.28666300e+00  3.16392700e+00  7.86827240e+00  1.88128850e+00  5.44249300e-01
  7.86827240e+00  1.88128850e+00  5.44249300e-01  1.68714400e-01  1.68714400e-01
  8.00000000e-01  4.38000000e-02  4.38000000e-02  3.04752490e+03  4.57369510e+02
  1.03948690e+02  2.92101550e+01  9.28666300e+00  3.16392700e+00  7.86827240e+00
  1.88128850e+00  5.44249300e-01  7.86827240e+00  1.88128850e+00  5.44249300e-01
  1.68714400e-01  1.68714400e-01  8.00000000e-01  4.38000000e-02  4.38000000e-02
  3.04752490e+03  4.57369510e+02  1.03948690e+02  2.92101550e+01  9.28666300e+00
  3.16392700e+00  7.86827240e+00  1.88128850e+00  5.44249300e-01  7.86827240e+00
  1.88128850e+00  5.44249300e-01  1.68714400e-01  1.68714400e-01  8.00000000e-01
  4.38000000e-02  4.38000000e-02  3.04752490e+03  4.57369510e+02  1.03948690e+02
  2.92101550e+01  9.28666300e+00  3.16392700e+00  7.86827240e+00  1.88128850e+00
  5.44249300e-01  7.86827240e+00  1.88128850e+00  5.44249300e-01  1.68714400e-01
  1.68714400e-01  8.00000000e-01  4.38000000e-02  4.38000000e-02  3.04752490e+03
  4.57369510e+02  1.03948690e+02  2.92101550e+01  9.28666300e+00  3.16392700e+00
  7.86827240e+00  1.88128850e+00  5.44249300e-01  7.86827240e+00  1.88128850e+00
  5.44249300e-01  1.68714400e-01  1.68714400e-01  8.00000000e-01  4.38000000e-02
  4.38000000e-02  1.87311370e+01  2.82539370e+00  6.40121700e-01  1.61277800e-01
  1.87311370e+01  2.82539370e+00  6.40121700e-01  1.61277800e-01  1.87311370e+01
  2.82539370e+00  6.40121700e-01  1.61277800e-01  5.48467170e+03  8.25234950e+02
  1.88046960e+02  5.29645000e+01  1.68975700e+01  5.79963530e+00  1.55396160e+01
  3.59993360e+00  1.01376180e+00  1.55396160e+01  3.59993360e+00  1.01376180e+00
  2.70005800e-01  2.70005800e-01  8.00000000e-01  8.45000000e-02  8.45000000e-02
  3.04752490e+03  4.57369510e+02  1.03948690e+02  2.92101550e+01  9.28666300e+00
  3.16392700e+00  7.86827240e+00  1.88128850e+00  5.44249300e-01  7.86827240e+00
  1.88128850e+00  5.44249300e-01  1.68714400e-01  1.68714400e-01  8.00000000e-01
  4.38000000e-02  4.38000000e-02  1.87311370e+01  2.82539370e+00  6.40121700e-01
  1.61277800e-01  1.87311370e+01  2.82539370e+00  6.40121700e-01  1.61277800e-01
  1.87311370e+01  2.82539370e+00  6.40121700e-01  1.61277800e-01  3.04752490e+03
  4.57369510e+02  1.03948690e+02  2.92101550e+01  9.28666300e+00  3.16392700e+00
  7.86827240e+00  1.88128850e+00  5.44249300e-01  7.86827240e+00  1.88128850e+00
  5.44249300e-01  1.68714400e-01  1.68714400e-01  8.00000000e-01  4.38000000e-02
  4.38000000e-02  3.04752490e+03  4.57369510e+02  1.03948690e+02  2.92101550e+01
  9.28666300e+00  3.16392700e+00  7.86827240e+00  1.88128850e+00  5.44249300e-01
  7.86827240e+00  1.88128850e+00  5.44249300e-01  1.68714400e-01  1.68714400e-01
  8.00000000e-01  4.38000000e-02  4.38000000e-02  1.87311370e+01  2.82539370e+00
  6.40121700e-01  1.61277800e-01  1.87311370e+01  2.82539370e+00  6.40121700e-01
  1.61277800e-01  1.87311370e+01  2.82539370e+00  6.40121700e-01  1.61277800e-01
  1.87311370e+01  2.82539370e+00  6.40121700e-01  1.61277800e-01  1.87311370e+01
  2.82539370e+00  6.40121700e-01  1.61277800e-01  1.87311370e+01  2.82539370e+00
  6.40121700e-01  1.61277800e-01  5.48467170e+03  8.25234950e+02  1.88046960e+02
  5.29645000e+01  1.68975700e+01  5.79963530e+00  1.55396160e+01  3.59993360e+00
  1.01376180e+00  1.55396160e+01  3.59993360e+00  1.01376180e+00  2.70005800e-01
  2.70005800e-01  8.00000000e-01  8.45000000e-02  8.45000000e-02  3.04752490e+03
  4.57369510e+02  1.03948690e+02  2.92101550e+01  9.28666300e+00  3.16392700e+00
  7.86827240e+00  1.88128850e+00  5.44249300e-01  7.86827240e+00  1.88128850e+00
  5.44249300e-01  1.68714400e-01  1.68714400e-01  8.00000000e-01  4.38000000e-02
  4.38000000e-02  1.87311370e+01  2.82539370e+00  6.40121700e-01  1.61277800e-01
  1.87311370e+01  2.82539370e+00  6.40121700e-01  1.61277800e-01  1.87311370e+01
  2.82539370e+00  6.40121700e-01  1.61277800e-01  1.87311370e+01  2.82539370e+00
  6.40121700e-01  1.61277800e-01  1.87311370e+01  2.82539370e+00  6.40121700e-01
  1.61277800e-01
Contraction coefficients                   R   N=         331
  1.83470016e-03  1.40373012e-02  6.88426061e-02  2.32184421e-01  4.67941342e-01
  3.62312032e-01 -1.19332409e-01 -1.60854212e-01  1.14345648e+00  6.89990956e-02
  3.16423980e-01  7.44308252e-01  1.00000000e+00  1.00000000e+00  1.00000000e+00
  1.00000000e+00  1.00000000e+00  1.83470016e-03  1.40373012e-02  6.88426061e-02
  2.32184421e-01  4.67941342e-01  3.62312032e-01 -1.19332409e-01 -1.60854212e-01
  1.14345648e+00  6.89990956e-02  3.16423980e-01  7.44308252e-01  1.00000000e+00
  1.00000000e+00  1.00000000e+00  1.00000000e+00  1.00000000e+00  1.83470016e-03
  1.40373012e-02  6.88426061e-02  2.32184421e-01  4.67941342e-01  3.62312032e-01
 -1.19332409e-01 -1.60854212e-01  1.14345648e+00  6.89990956e-02  3.16423980e-01
  7.44308252e-01  1.00000000e+00  1.00000000e+00  1.00000000e+00  1.00000000e+00
  1.00000000e+00  3.34945995e-02  2.34726947e-01  8.13757318e-01  1.00000000e+00
  3.34945995e-02  2.34726947e-01  8.13757318e-01  1.00000000e+00  1.83479944e-03
  1.39949958e-02  6.85869792e-02  2.32240930e-01  4.69069858e-01  3.60454891e-01
 -1.14961023e-01 -1.69118034e-01  1.14585223e+00  6.75800232e-02  3.23907111e-01
  7.40895255e-01  1.00000000e+00  1.00000000e+00  1.00000000e+00  1.00000000e+00
  1.00000000e+00  1.83470016e-03  1.40373012e-02  6.88426061e-02  2.32184421e-01
  4.67941342e-01  3.62312032e-01 -1.19332409e-01 -1.60854212e-01  1.14345648e+00
  6.89990956e-02  3.16423980e-01  7.44308252e-01  1.00000000e+00  1.00000000e+00
  1.00000000e+00  1.00000000e+00  1.00000000e+00  1.83470016e-03  1.40373012e-02
  6.88426061e-02  2.32184421e-01  4.67941342e-01  3.62312032e-01 -1.19332409e-01
 -1.60854212e-01  1.14345648e+00  6.89990956e-02  3.16423980e-01  7.44308252e-01
  1.00000000e+00  1.00000000e+00  1.00000000e+00  1.00000000e+00  1.00000000e+00
  1.83470016e-03  1.40373012e-02  6.88426061e-02  2.32184421e-01  4.67941342e-01
  3.62312032e-01 -1.19332409e-01 -1.60854212e-01  1.14345648e+00  6.89990956e-02
  3.16423980e-01  7.44308252e-01  1.00000000e+00  1.00000000e+00  1.00000000e+00
  1.00000000e+00  1.00000000e+00  1.83470016e-03  1.40373012e-02  6.88426061e-02
  2.32184421e-01  4.67941342e-01  3.62312032e-01 -1.19332409e-01 -1.60854212e-01
  1.14345648e+00  6.89990956e-02  3.16423980e-01  7.44308252e-01  1.00000000e+00
  1.00000000e+00  1.00000000e+00  1.00000000e+00  1.00000000e+00  1.83470016e-03
  1.40373012e-02  6.88426061e-02  2.32184421e-01  4.67941342e-01  3.62312032e-01
 -1.19332409e-01 -1.60854212e-01  1.14345648e+00  6.89990956e-02  3.16423980e-01
  7.44308252e-01  1.00000000e+00  1.00000000e+00  1.00000000e+00  1.00000000e+00
  1.00000000e+00  3.34945995e-02  2.34726947e-01  8.13757318e-01  1.00000000e+00
  3.34945995e-02  2.34726947e-01  8.13757318e-01  1.00000000e+00  3.34945995e-02
  2.34726947e-01  8.13757318e-01  1.00000000e+00  1.83109981e-03  1.39500985e-02
  6.84450927e-02  2.32714275e-01  4.70192950e-01  3.58520862e-01 -1.10777504e-01
 -1.48026305e-01  1.13076704e+00  7.08742995e-02  3.39752798e-01  7.27158595e-01
  1.00000000e+00  1.00000000e+00  1.00000000e+00  1.00000000e+00  1.00000000e+00
  1.83470016e-03  1.40373012e-02  6.88426061e-02  2.32184421e-01  4.67941342e-01
  3.62312032e-01 -1.19332409e-01 -1.60854212e-01  1.14345648e+00  6.89990956e-02
  3.16423980e-01  7.44308252e-01  1.00000000e+00  1.00000000e+00  1.00000000e+00
  1.00000000e+00  1.00000000e+00  3.34945995e-02  2.34726947e-01  8.13757318e-01
  1.00000000e+00  3.34945995e-02  2.34726947e-01  8.13757318e-01  1.00000000e+00
  3.34945995e-02  2.34726947e-01  8.13757318e-01  1.00000000e+00  1.83470016e-03
  1.40373012e-02  6.88426061e-02  2.32184421e-01  4.67941342e-01  3.62312032e-01
 -1.19332409e-01 -1.60854212e-01  1.14345648e+00  6.89990956e-02  3.16423980e-01
  7.44308252e-01  1.00000000e+00  1.00000000e+00  1.00000000e+00  1.00000000e+00
  1.00000000e+00  1.83470016e-03  1.40373012e-02  6.88426061e-02  2.32184421e-01
  4.67941342e-01  3.62312032e-01 -1.19332409e-01 -1.60854212e-01  1.14345648e+00
  6.89990956e-02  3.16423980e-01  7.44308252e-01  1.00000000e+00  1.00000000e+00
  1.00000000e+00  1.00000000e+00  1.00000000e+00  3.34945995e-02  2.34726947e-01
  8.13757318e-01  1.00000000e+00  3.34945995e-02  2.34726947e-01  8.13757318e-01
  1.00000000e+00  3.34945995e-02  2.34726947e-01  8.13757318e-01  1.00000000e+00
  3.34945995e-02  2.34726947e-01  8.13757318e-01  1.00000000e+00  3.34945995e-02
  2.34726947e-01  8.13757318e-01  1.00000000e+00  3.34945995e-02  2.34726947e-01
  8.13757318e-01  1.00000000e+00  1.83109981e-03  1.39500985e-02  6.84450927e-02
  2.32714275e-01  4.70192950e-01  3.58520862e-01 -1.10777504e-01 -1.48026305e-01
  1.13076704e+00  7.08742995e-02  3.39752798e-01  7.27158595e-01  1.00000000e+00
  1.00000000e+00  1.00000000e+00  1.00000000e+00  1.00000000e+00  1.83470016e-03
  1.40373012e-02  6.88426061e-02  2.32184421e-01  4.67941342e-01  3.62312032e-01
 -1.19332409e-01 -1.60854212e-01  1.14345648e+00  6.89990956e-02  3.16423980e-01
  7.44308252e-01  1.00000000e+00  1.00000000e+00  1.00000000e+00  1.00000000e+00
  1.00000000e+00  3.34945995e-02  2.34726947e-01  8.13757318e-01  1.00000000e+00
  3.34945995e-02  2.34726947e-01  8.13757318e-01  1.00000000e+00  3.34945995e-02
  2.34726947e-01  8.13757318e-01  1.00000000e+00  3.34945995e-02  2.34726947e-01
  8.13757318e-01  1.00000000e+00  3.34945995e-02  2.34726947e-01  8.13757318e-01
  1.00000000e+00
Coordinates of each shell                  R   N=         474
 -7.40098899e-01 -1.28065772e+00  1.36804920e+00 -7.40098899e-01 -1.28065772e+00
  1.36804920e+00 -7.40098899e-01 -1.28065772e+00  1.36804920e+00 -7.40098899e-01
 -1.28065772e+00  1.36804920e+00 -7.40098899e-01 -1.28065772e+00  1.36804920e+00
 -7.40098899e-01 -1.28065772e+00  1.36804920e+00 -7.40098899e-01 -1.28065772e+00
  1.36804920e+00 -7.40098899e-01 -1.28065772e+00  1.36804920e+00 -2.06827468e+00
 -2.88250425e+00  3.32536235e+00 -2.06827468e+00 -2.88250425e+00  3.32536235e+00
 -2.06827468e+00 -2.88250425e+00  3.32536235e+00 -2.06827468e+00 -2.88250425e+00
  3.32536235e+00 -2.06827468e+00 -2.88250425e+00  3.32536235e+00 -2.06827468e+00
 -2.88250425e+00  3.32536235e+00 -2.06827468e+00 -2.88250425e+00  3.32536235e+00
 -2.06827468e+00 -2.88250425e+00  3.32536235e+00 -4.53803907e+00 -1.67201645e+00
  4.32756967e+00 -4.53803907e+00 -1.67201645e+00  4.32756967e+00 -4.53803907e+00
 -1.67201645e+00  4.32756967e+00 -4.53803907e+00 -1.67201645e+00  4.32756967e+00
 -4.53803907e+00 -1.67201645e+00  4.32756967e+00 -4.53803907e+00 -1.67201645e+00
  4.32756967e+00 -4.53803907e+00 -1.67201645e+00  4.32756967e+00 -4.53803907e+00
 -1.67201645e+00  4.32756967e+00 -8.05354796e-01 -3.22074492e+00  4.93473656e+00
 -8.05354796e-01 -3.22074492e+00  4.93473656e+00 -2.52111520e+00 -4.73512191e+00
  2.50361858e+00 -2.52111520e+00 -4.73512191e+00  2.50361858e+00 -5.88361873e+00
 -3.12011009e+00  6.26582303e+00 -5.88361873e+00 -3.12011009e+00  6.26582303e+00
 -5.88361873e+00 -3.12011009e+00  6.26582303e+00 -5.88361873e+00 -3.12011009e+00
  6.26582303e+00 -5.88361873e+00 -3.12011009e+00  6.26582303e+00 -5.88361873e+00
 -3.12011009e+00  6.26582303e+00 -5.88361873e+00 -3.12011009e+00  6.26582303e+00
 -5.88361873e+00 -3.12011009e+00  6.26582303e+00  7.83082701e-01  7.74829366e-01
  2.08183895e+00  7.83082701e-01  7.74829366e-01  2.08183895e+00  7.83082701e-01
  7.74829366e-01  2.08183895e+00  7.83082701e-01  7.74829366e-01  2.08183895e+00
  7.83082701e-01  7.74829366e-01  2.08183895e+00  7.83082701e-01  7.74829366e-01
  2.08183895e+00  7.83082701e-01  7.74829366e-01  2.08183895e+00  7.83082701e-01
  7.74829366e-01  2.08183895e+00  1.95657717e+00  2.26486223e+00  2.38506064e-01
  1.95657717e+00  2.26486223e+00  2.38506064e-01  1.95657717e+00  2.26486223e+00
  2.38506064e-01  1.95657717e+00  2.26486223e+00  2.38506064e-01  1.95657717e+00
  2.26486223e+00  2.38506064e-01  1.95657717e+00  2.26486223e+00  2.38506064e-01
  1.95657717e+00  2.26486223e+00  2.38506064e-01  1.95657717e+00  2.26486223e+00
  2.38506064e-01  1.66115288e+00  1.77715670e+00 -2.34528700e+00  1.66115288e+00
  1.77715670e+00 -2.34528700e+00  1.66115288e+00  1.77715670e+00 -2.34528700e+00
  1.66115288e+00  1.77715670e+00 -2.34528700e+00  1.66115288e+00  1.77715670e+00
 -2.34528700e+00  1.66115288e+00  1.77715670e+00 -2.34528700e+00  1.66115288e+00
  1.77715670e+00 -2.34528700e+00  1.66115288e+00  1.77715670e+00 -2.34528700e+00
  1.33162436e-01 -2.75547395e-01 -3.05921032e+00  1.33162436e-01 -2.75547395e-01
 -3.05921032e+00  1.33162436e-01 -2.75547395e-01 -3.05921032e+00  1.33162436e-01
 -2.75547395e-01 -3.05921032e+00  1.33162436e-01 -2.75547395e-01 -3.05921032e+00
  1.33162436e-01 -2.75547395e-01 -3.05921032e+00  1.33162436e-01 -2.75547395e-01
 -3.05921032e+00  1.33162436e-01 -2.75547395e-01 -3.05921032e+00 -1.03931349e+00
 -1.76680500e+00 -1.21660502e+00 -1.03931349e+00 -1.76680500e+00 -1.21660502e+00
 -1.03931349e+00 -1.76680500e+00 -1.21660502e+00 -1.03931349e+00 -1.76680500e+00
 -1.21660502e+00 -1.03931349e+00 -1.76680500e+00 -1.21660502e+00 -1.03931349e+00
 -1.76680500e+00 -1.21660502e+00 -1.03931349e+00 -1.76680500e+00 -1.21660502e+00
 -1.03931349e+00 -1.76680500e+00 -1.21660502e+00 -2.21022562e+00 -3.35904132e+00
 -1.76486201e+00 -2.21022562e+00 -3.35904132e+00 -1.76486201e+00 -4.78063152e+00
 -3.36613274e+00  7.82451190e+00 -4.78063152e+00 -3.36613274e+00  7.82451190e+00
 -6.34456055e+00 -4.87580885e+00  5.62312336e+00 -6.34456055e+00 -4.87580885e+00
  5.62312336e+00 -1.04437558e-01 -6.85482780e-01 -5.61750572e+00 -1.04437558e-01
 -6.85482780e-01 -5.61750572e+00 -1.04437558e-01 -6.85482780e-01 -5.61750572e+00
 -1.04437558e-01 -6.85482780e-01 -5.61750572e+00 -1.04437558e-01 -6.85482780e-01
 -5.61750572e+00 -1.04437558e-01 -6.85482780e-01 -5.61750572e+00 -1.04437558e-01
 -6.85482780e-01 -5.61750572e+00 -1.04437558e-01 -6.85482780e-01 -5.61750572e+00
 -1.68512614e+00 -2.67990043e+00 -6.45844654e+00 -1.68512614e+00 -2.67990043e+00
 -6.45844654e+00 -1.68512614e+00 -2.67990043e+00 -6.45844654e+00 -1.68512614e+00
 -2.67990043e+00 -6.45844654e+00 -1.68512614e+00 -2.67990043e+00 -6.45844654e+00
 -1.68512614e+00 -2.67990043e+00 -6.45844654e+00 -1.68512614e+00 -2.67990043e+00
 -6.45844654e+00 -1.68512614e+00 -2.67990043e+00 -6.45844654e+00 -1.61799774e+00
 -2.61987418e+00 -8.51989218e+00 -1.61799774e+00 -2.61987418e+00 -8.51989218e+00
 -3.64467689e+00 -2.41437601e+00 -5.82648798e+00 -3.64467689e+00 -2.41437601e+00
 -5.82648798e+00 -9.95184309e-01 -4.52536065e+00 -5.80368949e+00 -9.95184309e-01
 -4.52536065e+00 -5.80368949e+00  2.98557810e+00  3.39062850e+00 -4.30041237e+00
  2.98557810e+00  3.39062850e+00 -4.30041237e+00  2.98557810e+00  3.39062850e+00
 -4.30041237e+00  2.98557810e+00  3.39062850e+00 -4.30041237e+00  2.98557810e+00
  3.39062850e+00 -4.30041237e+00  2.98557810e+00  3.39062850e+00 -4.30041237e+00
  2.98557810e+00  3.39062850e+00 -4.30041237e+00  2.98557810e+00  3.39062850e+00
 -4.30041237e+00  5.42016475e+00  2.17941493e+00 -5.34192619e+00  5.42016475e+00
  2.17941493e+00 -5.34192619e+00  5.42016475e+00  2.17941493e+00 -5.34192619e+00
  5.42016475e+00  2.17941493e+00 -5.34192619e+00  5.42016475e+00  2.17941493e+00
 -5.34192619e+00  5.42016475e+00  2.17941493e+00 -5.34192619e+00  5.42016475e+00
  2.17941493e+00 -5.34192619e+00  5.42016475e+00  2.17941493e+00 -5.34192619e+00
  3.44700175e+00  5.22578636e+00 -3.45096686e+00  3.44700175e+00  5.22578636e+00
 -3.45096686e+00  1.69525569e+00  3.76452359e+00 -5.87767797e+00  1.69525569e+00
  3.76452359e+00 -5.87767797e+00  6.78748704e+00  1.83464556e+00 -3.82306332e+00
  6.78748704e+00  1.83464556e+00 -3.82306332e+00  6.31363515e+00  3.42208516e+00
 -6.74076960e+00  6.31363515e+00  3.42208516e+00 -6.74076960e+00  5.00900463e+00
  3.70448826e-01 -6.25846001e+00  5.00900463e+00  3.70448826e-01 -6.25846001e+00
  3.12922526e+00  3.85597419e+00  7.86240886e-01  3.12922526e+00  3.85597419e+00
  7.86240886e-01  1.01817077e+00  1.18658521e+00  4.64133117e+00  1.01817077e+00
  1.18658521e+00  4.64133117e+00  1.01817077e+00  1.18658521e+00  4.64133117e+00
  1.01817077e+00  1.18658521e+00  4.64133117e+00  1.01817077e+00  1.18658521e+00
  4.64133117e+00  1.01817077e+00  1.18658521e+00  4.64133117e+00  1.01817077e+00
  1.18658521e+00  4.64133117e+00  1.01817077e+00  1.18658521e+00  4.64133117e+00
  2.57566047e+00  3.20067659e+00  5.48075302e+00  2.57566047e+00  3.20067659e+00
  5.48075302e+00  2.57566047e+00  3.20067659e+00  5.48075302e+00  2.57566047e+00
  3.20067659e+00  5.48075302e+00  2.57566047e+00  3.20067659e+00  5.48075302e+00
  2.57566047e+00  3.20067659e+00  5.48075302e+00  2.57566047e+00  3.20067659e+00
  5.48075302e+00  2.57566047e+00  3.20067659e+00  5.48075302e+00  4.54067275e+00
  2.95092258e+00  4.85985760e+00  4.54067275e+00  2.95092258e+00  4.85985760e+00
  2.49877781e+00  3.15001145e+00  7.54209460e+00  2.49877781e+00  3.15001145e+00
  7.54209460e+00  1.87079080e+00  5.03554317e+00  4.81323332e+00  1.87079080e+00
  5.03554317e+00  4.81323332e+00 -5.84180331e+00 -1.36718842e+00  2.74422494e+00
 -5.84180331e+00 -1.36718842e+00  2.74422494e+00 -4.10989167e+00  1.93428276e-01
  5.11529148e+00 -4.10989167e+00  1.93428276e-01  5.11529148e+00
Total Energy                               R     -6.739206058598060e+02
Alpha Orbital Energies                     R   N=         323
 -1.91831063e+01 -1.91823024e+01 -1.43187598e+01 -1.02440239e+01 -1.02436301e+01
 -1.02434493e+01 -1.02430041e+01 -1.02052534e+01 -1.01954360e+01 -1.01945603e+01
 -1.01905222e+01 -1.01900791e+01 -1.01862944e+01 -1.01849241e+01 -1.01739779e+01
 -1.06498759e+00 -1.06402492e+00 -8.80842041e-01 -8.56554652e-01 -7.98765662e-01
 -7.54582139e-01 -7.49046853e-01 -7.21145548e-01 -7.09580254e-01 -6.72203639e-01