Generated by Psi4
     FORCE                           RHF                       TESTBAS
Number of atoms                            I               28
Charge                                     I                0
Multiplicity                               I                1
Number of electrons                        I              132
Number of alpha electrons                  I               66
Number of beta electrons                   I               66
Number of basis functions                  I              310
Number of independent functions            I              310
Atomic numbers                             I   N=          28
           6           6           6           1           1           7
           6           6           6           6           6           1
           1           1           8           6           1           1
           1           1           8           6           1           1
           1          35           1           1
Nuclear charges                            R   N=          28
  6.00000000e+00  6.00000000e+00  6.00000000e+00  1.00000000e+00  1.00000000e+00
  7.00000000e+00  6.00000000e+00  6.00000000e+00  6.00000000e+00  6.00000000e+00
  6.00000000e+00  1.00000000e+00  1.00000000e+00  1.00000000e+00  8.00000000e+00
  6.00000000e+00  1.00000000e+00  1.00000000e+00  1.00000000e+00  1.00000000e+00
  8.00000000e+00  6.00000000e+00  1.00000000e+00  1.00000000e+00  1.00000000e+00
  3.50000000e+01  1.00000000e+00  1.00000000e+00
Current cartesian coordinates              R   N=          84
 -1.21662426e+00 -2.13249671e+00  2.27834987e+00 -2.50978961e+00 -3.74287925e+00
  4.25099392e+00 -4.96816703e+00 -2.53778761e+00  5.29170178e+00 -1.22066131e+00
 -4.07928597e+00  5.83914088e+00 -2.96939646e+00 -5.59442336e+00  3.43223522e+00
 -6.27859830e+00 -3.98906088e+00  7.24849004e+00  3.15534968e-01 -7.51239983e-02
  2.98358542e+00  1.46509552e+00  1.42669908e+00  1.13676307e+00  1.08676766e+00
  8.99735752e-01 -1.41745346e+00 -4.32847278e-01 -1.12668151e+00 -2.18437683e+00
 -1.55753683e+00 -2.61223934e+00 -2.98708228e-01 -2.73110566e+00 -4.20683641e+00
 -8.33360664e-01 -5.15595967e+00 -4.23237011e+00  8.79317868e+00 -6.75295143e+00
 -5.74394876e+00  6.61428446e+00 -7.09552807e-01 -1.52578534e+00 -4.71599321e+00
 -2.24739124e+00 -3.56639037e+00 -5.53835465e+00 -2.18427546e+00 -3.51004394e+00
 -7.59890580e+00 -4.20953669e+00 -3.34026442e+00 -4.90190381e+00 -1.50657492e+00
 -5.38804019e+00 -4.87551955e+00  2.65646998e+00  3.00975503e+00  1.64601298e+00
  5.96169194e-01  3.22711872e-01  5.53303680e+00  2.15135146e+00  2.35053042e+00
  6.35683201e+00  4.10841756e+00  2.11389414e+00  5.70859634e+00  2.10088818e+00
  2.29359962e+00  8.41816752e+00  1.41979912e+00  4.17831305e+00  5.70062582e+00
  2.68864795e+00  2.99199685e+00 -3.88908702e+00 -6.29610310e+00 -2.23634503e+00
  3.72807962e+00 -4.53270149e+00 -6.71184699e-01  6.07262850e+00
Integer atomic weights                     I   N=          28
          12          12          12           1           1          14
          12          12          12          12          12           1
           1           1          15          12           1           1
           1           1          15          12           1           1
           1          78           1           1
Real atomic weights                        R   N=          28
  1.20000000e+01  1.20000000e+01  1.20000000e+01  1.00782503e+00  1.00782503e+00
  1.40030740e+01  1.20000000e+01  1.20000000e+01  1.20000000e+01  1.20000000e+01
  1.20000000e+01  1.00782503e+00  1.00782503e+00  1.00782503e+00  1.59949146e+01
  1.20000000e+01  1.00782503e+00  1.00782503e+00  1.00782503e+00  1.00782503e+00
  1.59949146e+01  1.20000000e+01  1.00782503e+00  1.00782503e+00  1.00782503e+00
  7.89183376e+01  1.00782503e+00  1.00782503e+00
Number of primitive shells                 I              320
Number of contracted shells                I              144
Pure/Cartesian d shells                    I                1
Pure/Cartesian f shells                    I                1
Highest angular momentum                   I                2
Largest degree of contraction              I                6
Shell types                                I   N=         144
           0           0           1           0           1           2
           0           1           0           0           1           0
           1           2           0           1           0           0
           1           0           1           2           0           1
           0           0           0           0           0           0
           1           0           1           2           0           1
           0           0           1           0           1           2
           0           1           0           0           1           0
           1           2           0           1           0           0
           1           0           1           2           0           1
           0           0           1           0           1           2
           0           1           0           0           1           0
           1           2           0           1           0           0
           0           0           0           0           0           0
           1           0           1           2           0           1
           0           0           1           0           1           2
           0           1           0           0           0           0
           0           0           0           0           0           0
           1           0           1           2           0           1
           0           0           1           0           1           2
           0           1           0           0           0           0
           0           0           0           0           1           0
           1           0           1           0           1           2
           2           2           0           0           0           0
Number of primitives per shell             I   N=         144
           6           3           3           1           1           1
           1           1           6           3           3           1
           1           1           1           1           6           3
           3           1           1           1           1           1
           3           1           3           1           6           3
           3           1           1           1           1           1
           6           3           3           1           1           1
           1           1           6           3           3           1
           1           1           1           1           6           3
           3           1           1           1           1           1
           6           3           3           1           1           1
           1           1           6           3           3           1
           1           1           1           1           3           1
           3           1           3           1           6           3
           3           1           1           1           1           1
           6           3           3           1           1           1
           1           1           3           1           3           1
           3           1           3           1           6           3
           3           1           1           1           1           1
           6           3           3           1           1           1
           1           1           3           1           3           1
           3           1           6           6           6           6
           6           3           3           1           1           3
           1           1           3           1           3           1
Shell to atom map                          I   N=         144
           1           1           1           1           1           1
           1           1           2           2           2           2
           2           2           2           2           3           3
           3           3           3           3           3           3
           4           4           5           5           6           6
           6           6           6           6           6           6
           7           7           7           7           7           7
           7           7           8           8           8           8
           8           8           8           8           9           9
           9           9           9           9           9           9
          10          10          10          10          10          10
          10          10          11          11          11          11
          11          11          11          11          12          12
          13          13          14          14          15          15
          15          15          15          15          15          15
          16          16          16          16          16          16
          16          16          17          17          18          18
          19          19          20          20          21          21
          21          21          21          21          21          21
          22          22          22          22          22          22
          22          22          23          23          24          24
          25          25          26          26          26          26
          26          26          26          26          26          26
          26          26          27          27          28          28
Primitive exponents                        R   N=         320
  3.04752490e+03  4.57369510e+02  1.03948690e+02  2.92101550e+01  9.28666300e+00
  3.16392700e+00  7.86827240e+00  1.88128850e+00  5.44249300e-01  7.86827240e+00
  1.88128850e+00  5.44249300e-01  1.68714400e-01  1.68714400e-01  8.00000000e-01
  4.38000000e-02  4.38000000e-02  3.04752490e+03  4.57369510e+02  1.03948690e+02
  2.92101550e+01  9.28666300e+00  3.16392700e+00  7.86827240e+00  1.88128850e+00
  5.44249300e-01  7.86827240e+00  1.88128850e+00  5.44249300e-01  1.68714400e-01
  1.68714400e-01  8.00000000e-01  4.38000000e-02  4.38000000e-02  3.04752490e+03
  4.57369510e+02  1.03948690e+02  2.92101550e+01  9.28666300e+00  3.16392700e+00
  7.86827240e+00  1.88128850e+00  5.44249300e-01  7.86827240e+00  1.88128850e+00
  5.44249300e-01  1.68714400e-01  1.68714400e-01  8.00000000e-01  4.38000000e-02
  4.38000000e-02  1.87311370e+01  2.82539370e+00  6.40121700e-01  1.61277800e-01
  1.87311370e+01  2.82539370e+00  6.40121700e-01  1.61277800e-01  4.17351100e+03
  6.27457900e+02  1.42902100e+02  4.02343300e+01  1.28202100e+01  4.39043700e+00
  1.16263580e+01  2.71628000e+00  7.72218000e-01  1.16263580e+01  2.71628000e+00
  7.72218000e-01  2.12031300e-01  2.12031300e-01  8.00000000e-01  6.39000000e-02
  6.39000000e-02  3.04752490e+03  4.57369510e+02  1.03948690e+02  2.92101550e+01
  9.28666300e+00  3.16392700e+00  7.86827240e+00  1.88128850e+00  5.44249300e-01
  7.86827240e+00  1.88128850e+00  5.44249300e-01  1.68714400e-01  1.68714400e-01
  8.00000000e-01  4.38000000e-02  4.38000000e-02  3.04752490e+03  4.57369510e+02
  1.03948690e+02  2.92101550e+01  9.28666300e+00  3.16392700e+00  7.86827240e+00
  1.88128850e+00  5.44249300e-01  7.86827240e+00  1.88128850e+00  5.44249300e-01
  1.68714400e-01  1.68714400e-01  8.00000000e-01  4.38000000e-02  4.38000000e-02
  3.04752490e+03  4.57369510e+02  1.03948690e+02  2.92101550e+01  9.28666300e+00
  3.16392700e+00  7.86827240e+00  1.88128850e+00  5.44249300e-01  7.86827240e+00
  1.88128850e+00  5.44249300e-01  1.68714400e-01  1.68714400e-01  8.00000000e-01
  4.38000000e-02  4.38000000e-02  3.04752490e+03  4.57369510e+02  1.03948690e+02
  2.92101550e+01  9.28666300e+00  3.16392700e+00  7.86827240e+00  1.88128850e+00
  5.44249300e-01  7.86827240e+00  1.88128850e+00  5.44249300e-01  1.68714400e-01
  1.68714400e-01  8.00000000e-01  4.38000000e-02  4.38000000e-02  3.04752490e+03
  4.57369510e+02  1.03948690e+02  2.92101550e+01  9.28666300e+00  3.16392700e+00
  7.86827240e+00  1.88128850e+00  5.44249300e-01  7.86827240e+00  1.88128850e+00
  5.44249300e-01  1.68714400e-01  1.68714400e-01  8.00000000e-01  4.38000000e-02
  4.38000000e-02  1.87311370e+01  2.82539370e+00  6.40121700e-01  1.61277800e-01
  1.87311370e+01  2.82539370e+00  6.40121700e-01  1.61277800e-01  1.87311370e+01
  2.82539370e+00  6.40121700e-01  1.61277800e-01  5.48467170e+03  8.25234950e+02
  1.88046960e+02  5.29645000e+01  1.68975700e+01  5.79963530e+00  1.55396160e+01
  3.59993360e+00  1.01376180e+00  1.55396160e+01  3.59993360e+00  1.01376180e+00
  2.70005800e-01  2.70005800e-01  8.00000000e-01  8.45000000e-02  8.45000000e-02
  3.04752490e+03  4.57369510e+02  1.03948690e+02  2.92101550e+01  9.28666300e+00
  3.16392700e+00  7.86827240e+00  1.88128850e+00  5.44249300e-01  7.86827240e+00
  1.88128850e+00  5.44249300e-01  1.68714400e-01  1.68714400e-01  8.00000000e-01
  4.38000000e-02  4.38000000e-02  1.87311370e+01  2.82539370e+00  6.40121700e-01
  1.61277800e-01  1.87311370e+01  2.82539370e+00  6.40121700e-01  1.61277800e-01
  1.87311370e+01  2.82539370e+00  6.40121700e-01  1.61277800e-01  1.87311370e+01
  2.82539370e+00  6.40121700e-01  1.61277800e-01  5.48467170e+03  8.25234950e+02
  1.88046960e+02  5.29645000e+01  1.68975700e+01  5.79963530e+00  1.55396160e+01
  3.59993360e+00  1.01376180e+00  1.55396160e+01  3.59993360e+00  1.01376180e+00
  2.70005800e-01  2.70005800e-01  8.00000000e-01  8.45000000e-02  8.45000000e-02
  3.04752490e+03  4.57369510e+02  1.03948690e+02  2.92101550e+01  9.28666300e+00
  3.16392700e+00  7.86827240e+00  1.88128850e+00  5.44249300e-01  7.86827240e+00
  1.88128850e+00  5.44249300e-01  1.68714400e-01  1.68714400e-01  8.00000000e-01
  4.38000000e-02  4.38000000e-02  1.87311370e+01  2.82539370e+00  6.40121700e-01
  1.61277800e-01  1.87311370e+01  2.82539370e+00  6.40121700e-01  1.61277800e-01
  1.87311370e+01  2.82539370e+00  6.40121700e-01  1.61277800e-01  1.13718200e+05
  1.70744400e+04  3.88957600e+03  1.09709600e+03  3.52062400e+02  1.20700200e+02
  2.47113800e+03  5.89383800e+02  1.91873800e+02  7.29533900e+01  3.00583900e+01
  1.25292700e+01  2.47113800e+03  5.89383800e+02  1.91873800e+02  7.29533900e+01
  3.00583900e+01  1.25292700e+01  1.09641100e+02  3.85894800e+01  1.63781800e+01
  7.22183600e+00  3.26369700e+00  1.46549900e+00  1.09641100e+02  3.85894800e+01
  1.63781800e+01  7.22183600e+00  3.26369700e+00  1.46549900e+00  2.10365100e+00
  7.54705000e-01  3.00514000e-01  2.10365100e+00  7.54705000e-01  3.00514000e-01
  1.09071000e-01  1.09071000e-01  6.22551400e+01  1.73128400e+01  5.60791500e+00
  1.74648600e+00  4.36600000e-01  1.87311370e+01  2.82539370e+00  6.40121700e-01
  1.61277800e-01  1.87311370e+01  2.82539370e+00  6.40121700e-01  1.61277800e-01
Contraction coefficients                   R   N=         320
  1.83470016e-03  1.40373012e-02  6.88426061e-02  2.32184421e-01  4.67941342e-01
  3.62312032e-01 -1.19332409e-01 -1.60854212e-01  1.14345648e+00  6.89990956e-02
  3.16423980e-01  7.44308252e-01  1.00000000e+00  1.00000000e+00  1.00000000e+00
  1.00000000e+00  1.00000000e+00  1.83470016e-03  1.40373012e-02  6.88426061e-02
  2.32184421e-01  4.67941342e-01  3.62312032e-01 -1.19332409e-01 -1.60854212e-01
  1.14345648e+00  6.89990956e-02  3.16423980e-01  7.44308252e-01  1.00000000e+00
  1.00000000e+00  1.00000000e+00  1.00000000e+00  1.00000000e+00  1.83470016e-03
  1.40373012e-02  6.88426061e-02  2.32184421e-01  4.67941342e-01  3.62312032e-01
 -1.19332409e-01 -1.60854212e-01  1.14345648e+00  6.89990956e-02  3.16423980e-01
  7.44308252e-01  1.00000000e+00  1.00000000e+00  1.00000000e+00  1.00000000e+00
  1.00000000e+00  3.34945995e-02  2.34726947e-01  8.13757318e-01  1.00000000e+00
  3.34945995e-02  2.34726947e-01  8.13757318e-01  1.00000000e+00  1.83479944e-03
  1.39949958e-02  6.85869792e-02  2.32240930e-01  4.69069858e-01  3.60454891e-01
 -1.14961023e-01 -1.69118034e-01  1.14585223e+00  6.75800232e-02  3.23907111e-01
  7.40895255e-01  1.00000000e+00  1.00000000e+00  1.00000000e+00  1.00000000e+00
  1.00000000e+00  1.83470016e-03  1.40373012e-02  6.88426061e-02  2.32184421e-01
  4.67941342e-01  3.62312032e-01 -1.19332409e-01 -1.60854212e-01  1.14345648e+00
  6.89990956e-02  3.16423980e-01  7.44308252e-01  1.00000000e+00  1.00000000e+00
  1.00000000e+00  1.00000000e+00  1.00000000e+00  1.83470016e-03  1.40373012e-02
  6.88426061e-02  2.32184421e-01  4.67941342e-01  3.62312032e-01 -1.19332409e-01
 -1.60854212e-01  1.14345648e+00  6.89990956e-02  3.16423980e-01  7.44308252e-01
  1.00000000e+00  1.00000000e+00  1.00000000e+00  1.00000000e+00  1.00000000e+00
  1.83470016e-03  1.40373012e-02  6.88426061e-02  2.32184421e-01  4.67941342e-01
  3.62312032e-01 -1.19332409e-01 -1.60854212e-01  1.14345648e+00  6.89990956e-02
  3.16423980e-01  7.44308252e-01  1.00000000e+00  1.00000000e+00  1.00000000e+00
  1.00000000e+00  1.00000000e+00  1.83470016e-03  1.40373012e-02  6.88426061e-02
  2.32184421e-01  4.67941342e-01  3.62312032e-01 -1.19332409e-01 -1.60854212e-01
  1.14345648e+00  6.89990956e-02  3.16423980e-01  7.44308252e-01  1.00000000e+00
  1.00000000e+00  1.00000000e+00  1.00000000e+00  1.00000000e+00  1.83470016e-03
  1.40373012e-02  6.88426061e-02  2.32184421e-01  4.67941342e-01  3.62312032e-01
 -1.19332409e-01 -1.60854212e-01  1.14345648e+00  6.89990956e-02  3.16423980e-01
  7.44308252e-01  1.00000000e+00  1.00000000e+00  1.00000000e+00  1.00000000e+00
  1.00000000e+00  3.34945995e-02  2.34726947e-01  8.13757318e-01  1.00000000e+00
  3.34945995e-02  2.34726947e-01  8.13757318e-01  1.00000000e+00  3.34945995e-02
  2.34726947e-01  8.13757318e-01  1.00000000e+00  1.83109981e-03  1.39500985e-02
  6.84450927e-02  2.32714275e-01  4.70192950e-01  3.58520862e-01 -1.10777504e-01
 -1.48026305e-01  1.13076704e+00  7.08742995e-02  3.39752798e-01  7.27158595e-01
  1.00000000e+00  1.00000000e+00  1.00000000e+00  1.00000000e+00  1.00000000e+00
  1.83470016e-03  1.40373012e-02  6.88426061e-02  2.32184421e-01  4.67941342e-01
  3.62312032e-01 -1.19332409e-01 -1.60854212e-01  1.14345648e+00  6.89990956e-02
  3.16423980e-01  7.44308252e-01  1.00000000e+00  1.00000000e+00  1.00000000e+00
  1.00000000e+00  1.00000000e+00  3.34945995e-02  2.34726947e-01  8.13757318e-01
  1.00000000e+00  3.34945995e-02  2.34726947e-01  8.13757318e-01  1.00000000e+00
  3.34945995e-02  2.34726947e-01  8.13757318e-01  1.00000000e+00  3.34945995e-02
  2.34726947e-01  8.13757318e-01  1.00000000e+00  1.83109981e-03  1.39500985e-02
  6.84450927e-02  2.32714275e-01  4.70192950e-01  3.58520862e-01 -1.10777504e-01
 -1.48026305e-01  1.13076704e+00  7.08742995e-02  3.39752798e-01  7.27158595e-01
  1.00000000e+00  1.00000000e+00  1.00000000e+00  1.00000000e+00  1.00000000e+00
  1.83470016e-03  1.40373012e-02  6.88426061e-02  2.32184421e-01  4.67941342e-01
  3.62312032e-01 -1.19332409e-01 -1.60854212e-01  1.14345648e+00  6.89990956e-02
  3.16423980e-01  7.44308252e-01  1.00000000e+00  1.00000000e+00  1.00000000e+00
  1.00000000e+00  1.00000000e+00  3.34945995e-02  2.34726947e-01  8.13757318e-01
  1.00000000e+00  3.34945995e-02  2.34726947e-01  8.13757318e-01  1.00000000e+00
  3.34945995e-02  2.34726947e-01  8.13757318e-01  1.00000000e+00  1.71769602e-03
  1.31674402e-02  6.50455308e-02  2.26950503e-01  4.76835706e-01  3.58367704e-01
  2.24368693e-03  2.99485291e-02  1.25600896e-01 -9.83278571e-04 -6.01314082e-01
 -4.91398286e-01  3.79018184e-03  2.99597888e-02  1.31822795e-01  3.43270786e-01
  4.64234481e-01  2.07938691e-01 -5.97568320e-03  5.54212219e-02  2.68120009e-01
 -1.54360605e-01 -7.20630625e-01 -3.31643711e-01 -6.90748264e-03 -3.04143184e-02
  4.60272476e-02  3.65068881e-01  4.94923174e-01  2.09039389e-01  3.02902925e-01
 -2.15265918e-01 -9.63394181e-01 -2.82671388e-02  3.50306486e-01  7.18244570e-01
  1.00000000e+00  1.00000000e+00  7.70422846e-02  3.70738374e-01  7.09762750e-01
  1.00000000e+00  1.00000000e+00  3.34945995e-02  2.34726947e-01  8.13757318e-01
  1.00000000e+00  3.34945995e-02  2.34726947e-01  8.13757318e-01  1.00000000e+00
Coordinates of each shell                  R   N=         432
 -1.21662426e+00 -2.13249671e+00  2.27834987e+00 -1.21662426e+00 -2.13249671e+00
  2.27834987e+00 -1.21662426e+00 -2.13249671e+00  2.27834987e+00 -1.21662426e+00
 -2.13249671e+00  2.27834987e+00 -1.21662426e+00 -2.13249671e+00  2.27834987e+00
 -1.21662426e+00 -2.13249671e+00  2.27834987e+00 -1.21662426e+00 -2.13249671e+00
  2.27834987e+00 -1.21662426e+00 -2.13249671e+00  2.27834987e+00 -2.50978961e+00
 -3.74287925e+00  4.25099392e+00 -2.50978961e+00 -3.74287925e+00  4.25099392e+00
 -2.50978961e+00 -3.74287925e+00  4.25099392e+00 -2.50978961e+00 -3.74287925e+00
  4.25099392e+00 -2.50978961e+00 -3.74287925e+00  4.25099392e+00 -2.50978961e+00
 -3.74287925e+00  4.25099392e+00 -2.50978961e+00 -3.74287925e+00  4.25099392e+00
 -2.50978961e+00 -3.74287925e+00  4.25099392e+00 -4.96816703e+00 -2.53778761e+00
  5.29170178e+00 -4.96816703e+00 -2.53778761e+00  5.29170178e+00 -4.96816703e+00
 -2.53778761e+00  5.29170178e+00 -4.96816703e+00 -2.53778761e+00  5.29170178e+00
 -4.96816703e+00 -2.53778761e+00  5.29170178e+00 -4.96816703e+00 -2.53778761e+00
  5.29170178e+00 -4.96816703e+00 -2.53778761e+00  5.29170178e+00 -4.96816703e+00
 -2.53778761e+00  5.29170178e+00 -1.22066131e+00 -4.07928597e+00  5.83914088e+00
 -1.22066131e+00 -4.07928597e+00  5.83914088e+00 -2.96939646e+00 -5.59442336e+00
  3.43223522e+00 -2.96939646e+00 -5.59442336e+00  3.43223522e+00 -6.27859830e+00
 -3.98906088e+00  7.24849004e+00 -6.27859830e+00 -3.98906088e+00  7.24849004e+00
 -6.27859830e+00 -3.98906088e+00  7.24849004e+00 -6.27859830e+00 -3.98906088e+00
  7.24849004e+00 -6.27859830e+00 -3.98906088e+00  7.24849004e+00 -6.27859830e+00
 -3.98906088e+00  7.24849004e+00 -6.27859830e+00 -3.98906088e+00  7.24849004e+00
 -6.27859830e+00 -3.98906088e+00  7.24849004e+00  3.15534968e-01 -7.51239983e-02
  2.98358542e+00  3.15534968e-01 -7.51239983e-02  2.98358542e+00  3.15534968e-01
 -7.51239983e-02  2.98358542e+00  3.15534968e-01 -7.51239983e-02  2.98358542e+00
  3.15534968e-01 -7.51239983e-02  2.98358542e+00  3.15534968e-01 -7.51239983e-02
  2.98358542e+00  3.15534968e-01 -7.51239983e-02  2.98358542e+00  3.15534968e-01
 -7.51239983e-02  2.98358542e+00  1.46509552e+00  1.42669908e+00  1.13676307e+00
  1.46509552e+00  1.42669908e+00  1.13676307e+00  1.46509552e+00  1.42669908e+00
  1.13676307e+00  1.46509552e+00  1.42669908e+00  1.13676307e+00  1.46509552e+00
  1.42669908e+00  1.13676307e+00  1.46509552e+00  1.42669908e+00  1.13676307e+00
  1.46509552e+00  1.42669908e+00  1.13676307e+00  1.46509552e+00  1.42669908e+00
  1.13676307e+00  1.08676766e+00  8.99735752e-01 -1.41745346e+00  1.08676766e+00
  8.99735752e-01 -1.41745346e+00  1.08676766e+00  8.99735752e-01 -1.41745346e+00
  1.08676766e+00  8.99735752e-01 -1.41745346e+00  1.08676766e+00  8.99735752e-01
 -1.41745346e+00  1.08676766e+00  8.99735752e-01 -1.41745346e+00  1.08676766e+00
  8.99735752e-01 -1.41745346e+00  1.08676766e+00  8.99735752e-01 -1.41745346e+00
 -4.32847278e-01 -1.12668151e+00 -2.18437683e+00 -4.32847278e-01 -1.12668151e+00
 -2.18437683e+00 -4.32847278e-01 -1.12668151e+00 -2.18437683e+00 -4.32847278e-01
 -1.12668151e+00 -2.18437683e+00 -4.32847278e-01 -1.12668151e+00 -2.18437683e+00
 -4.32847278e-01 -1.12668151e+00 -2.18437683e+00 -4.32847278e-01 -1.12668151e+00
 -2.18437683e+00 -4.32847278e-01 -1.12668151e+00 -2.18437683e+00 -1.55753683e+00
 -2.61223934e+00 -2.98708228e-01 -1.55753683e+00 -2.61223934e+00 -2.98708228e-01
 -1.55753683e+00 -2.61223934e+00 -2.98708228e-01 -1.55753683e+00 -2.61223934e+00
 -2.98708228e-01 -1.55753683e+00 -2.61223934e+00 -2.98708228e-01 -1.55753683e+00
 -2.61223934e+00 -2.98708228e-01 -1.55753683e+00 -2.61223934e+00 -2.98708228e-01
 -1.55753683e+00 -2.61223934e+00 -2.98708228e-01 -2.73110566e+00 -4.20683641e+00
 -8.33360664e-01 -2.73110566e+00 -4.20683641e+00 -8.33360664e-01 -5.15595967e+00
 -4.23237011e+00  8.79317868e+00 -5.15595967e+00 -4.23237011e+00  8.79317868e+00
 -6.75295143e+00 -5.74394876e+00  6.61428446e+00 -6.75295143e+00 -5.74394876e+00
  6.61428446e+00 -7.09552807e-01 -1.52578534e+00 -4.71599321e+00 -7.09552807e-01
 -1.52578534e+00 -4.71599321e+00 -7.09552807e-01 -1.52578534e+00 -4.71599321e+00
 -7.09552807e-01 -1.52578534e+00 -4.71599321e+00 -7.09552807e-01 -1.52578534e+00
 -4.71599321e+00 -7.09552807e-01 -1.52578534e+00 -4.71599321e+00 -7.09552807e-01
 -1.52578534e+00 -4.71599321e+00 -7.09552807e-01 -1.52578534e+00 -4.71599321e+00
 -2.24739124e+00 -3.56639037e+00 -5.53835465e+00 -2.24739124e+00 -3.56639037e+00
 -5.53835465e+00 -2.24739124e+00 -3.56639037e+00 -5.53835465e+00 -2.24739124e+00
 -3.56639037e+00 -5.53835465e+00 -2.24739124e+00 -3.56639037e+00 -5.53835465e+00
 -2.24739124e+00 -3.56639037e+00 -5.53835465e+00 -2.24739124e+00 -3.56639037e+00
 -5.53835465e+00 -2.24739124e+00 -3.56639037e+00 -5.53835465e+00 -2.18427546e+00
 -3.51004394e+00 -7.59890580e+00 -2.18427546e+00 -3.51004394e+00 -7.59890580e+00
 -4.20953669e+00 -3.34026442e+00 -4.90190381e+00 -4.20953669e+00 -3.34026442e+00
 -4.90190381e+00 -1.50657492e+00 -5.38804019e+00 -4.87551955e+00 -1.50657492e+00
 -5.38804019e+00 -4.87551955e+00  2.65646998e+00  3.00975503e+00  1.64601298e+00
  2.65646998e+00  3.00975503e+00  1.64601298e+00  5.96169194e-01  3.22711872e-01
  5.53303680e+00  5.96169194e-01  3.22711872e-01  5.53303680e+00  5.96169194e-01
  3.22711872e-01  5.53303680e+00  5.96169194e-01  3.22711872e-01  5.53303680e+00
  5.96169194e-01  3.22711872e-01  5.53303680e+00  5.96169194e-01  3.22711872e-01
  5.53303680e+00  5.96169194e-01  3.22711872e-01  5.53303680e+00  5.96169194e-01
  3.22711872e-01  5.53303680e+00  2.15135146e+00  2.35053042e+00  6.35683201e+00
  2.15135146e+00  2.35053042e+00  6.35683201e+00  2.15135146e+00  2.35053042e+00
  6.35683201e+00  2.15135146e+00  2.35053042e+00  6.35683201e+00  2.15135146e+00
  2.35053042e+00  6.35683201e+00  2.15135146e+00  2.35053042e+00  6.35683201e+00
  2.15135146e+00  2.35053042e+00  6.35683201e+00  2.15135146e+00  2.35053042e+00
  6.35683201e+00  4.10841756e+00  2.11389414e+00  5.70859634e+00  4.10841756e+00
  2.11389414e+00  5.70859634e+00  2.10088818e+00  2.29359962e+00  8.41816752e+00
  2.10088818e+00  2.29359962e+00  8.41816752e+00  1.41979912e+00  4.17831305e+00
  5.70062582e+00  1.41979912e+00  4.17831305e+00  5.70062582e+00  2.68864795e+00
  2.99199685e+00 -3.88908702e+00  2.68864795e+00  2.99199685e+00 -3.88908702e+00
  2.68864795e+00  2.99199685e+00 -3.88908702e+00  2.68864795e+00  2.99199685e+00
 -3.88908702e+00  2.68864795e+00  2.99199685e+00 -3.88908702e+00  2.68864795e+00
  2.99199685e+00 -3.88908702e+00  2.68864795e+00  2.99199685e+00 -3.88908702e+00
  2.68864795e+00  2.99199685e+00 -3.88908702e+00  2.68864795e+00  2.99199685e+00
 -3.88908702e+00  2.68864795e+00  2.99199685e+00 -3.88908702e+00  2.68864795e+00
  2.99199685e+00 -3.88908702e+00  2.68864795e+00  2.99199685e+00 -3.88908702e+00
 -6.29610310e+00 -2.23634503e+00  3.72807962e+00 -6.29610310e+00 -2.23634503e+00
  3.72807962e+00 -4.53270149e+00 -6.71184699e-01  6.07262850e+00 -4.53270149e+00
 -6.71184699e-01  6.07262850e+00
Total Energy                               R     -3.168430715252458e+03
Alpha Orbital Energies                     R   N=         310
 -4.82873573e+02 -6.25304884e+01 -5.63520728e+01 -5.63482805e+01 -5.63481310e+01
 -1.91931782e+01 -1.91925268e+01 -1.43241135e+01 -1.02624683e+01 -1.02573307e+01
 -1.02509574e+01 -1.02500816e+01 -1.02471178e+01 -1.02120820e+01 -1.02081947e+01
 -1.02072988e+01 -1.02041810e+01 -1.01930475e+01 -8.71025523e+00 -6.54070819e+00
 -6.52757469e+00 -6.52708533e+00 -2.60751209e+00 -2.60364851e+00 -2.60330019e+00
 -2.59290076e+00 -2.59288751e+00 -1.07748137e+00 -1.07532355e+00 -8.87238397e-01
 -8.74229096e-01 -8.17556896e-01 -7.68970079e-01 -7.62920392e-01 -7.31192223e-01
 -7.17042993e-01 -6.77498332e-01 -6.29023879e-01 -6.13189643e-01 -5.86181471e-01
 -5.32475524e-01 -5.28640800e-01 -5.21833155e-01 -5.00635701e-01 -4.81509576e-01
 -4.77288810e-01 -4.64437197e-01 -4.54238586e-01 -4.44740595e-01 -4.26194715e-01
 -4.22460385e-01 -4.13964480e-01 -4.05002050e-01 -3.99051548e-01 -3.82097197e-01
 -3.76350104e-01 -3.60266298e-01 -3.51250292e-01 -3.42680467e-01 -3.33560392e-01
 -3.19572074e-01 -2.95290194e-01 -2.83763332e-01 -2.54088888e-01 -2.39570143e-01
 -2.10554200e-01 -2.42503228e-02 -8.22836698e-03 -4.06677857e-03  3.82097982e-03
  4.58065736e-03  7.96214959e-03  2.68651902e-02  2.81968807e-02  2.88957971e-02
  3.11122432e-02  4.57747208e-02  4.75163109e-02  5.52256200e-02  5.93632868e-02
  6.39515203e-02  7.47707010e-02  7.84898583e-02  8.59344442e-02  9.05867418e-02
  9.60094202e-02  9.81865324e-02  1.06244864e-01  1.09104446e-01  1.21789413e-01
  1.25817354e-01  1.31988214e-01  1.36896231e-01  1.37109289e-01  1.43364005e-01
  1.46759890e-01  1.51771218e-01  1.53525048e-01  1.58949527e-01  1.62886915e-01
  1.69788043e-01  1.77892994e-01  1.81119772e-01  1.86605245e-01  1.87616016e-01
  1.93560693e-01  1.99154243e-01  2.01932445e-01  2.07201435e-01  2.14385746e-01
  2.16951385e-01  2.20803168e-01  2.30763671e-01  2.33225697e-01  2.35408157e-01
  2.37761382e-01  2.48570136e-01  2.50605146e-01  2.55366534e-01  2.58979366e-01
  2.62648150e-01  2.70090518e-01  2.82061301e-01  2.83125670e-01  2.85916781e-01
  2.90773691e-01  2.96207873e-01  3.01061802e-01  3.01975578e-01  3.08777496e-01
  3.09862090e-01  3.13044317e-01  3.26730054e-01  3.31400356e-01  3.38331417e-01
  3.46257995e-01  3.53494079e-01  3.57171848e-01  3.70792887e-01  3.85376941e-01
  3.91353121e-01  4.03605181e-01  4.16386935e-01  4.27694302e-01  4.35904197e-01
  4.48605129e-01  4.50985645e-01  4.69519494e-01  4.84241246e-01  5.05062498e-01
  5.24135985e-01  5.99759633e-01  6.10353385e-01  6.22154285e-01  6.24340775e-01
  6.43032478e-01  6.62671160e-01  6.69978076e-01  6.71042057e-01  6.81190836e-01