Generated by Psi4
     FORCE                           RHF                       TESTBAS
Number of atoms                            I               34
Charge                                     I                0
Multiplicity                               I                1
Number of electrons                        I              114
Number of alpha electrons                  I               57
Number of beta electrons                   I               57
Number of basis functions                  I              323
Number of independent functions            I              323
Atomic numbers                             I   N=          34
           6           6           6           1           1           7
           6           6           6           6           6           1
           1           1           8           6           1           1
           1           1           8           6           1           1
           1           6           1           1           1           6
           1           1           1           1
Nuclear charges                            R   N=          34
  6.00000000e+00  6.00000000e+00  6.00000000e+00  1.00000000e+00  1.00000000e+00
  7.00000000e+00  6.00000000e+00  6.00000000e+00  6.00000000e+00  6.00000000e+00
  6.00000000e+00  1.00000000e+00  1.00000000e+00  1.00000000e+00  8.00000000e+00
  6.00000000e+00  1.00000000e+00  1.00000000e+00  1.00000000e+00  1.00000000e+00
  8.00000000e+00  6.00000000e+00  1.00000000e+00  1.00000000e+00  1.00000000e+00
  6.00000000e+00  1.00000000e+00  1.00000000e+00  1.00000000e+00  6.00000000e+00
  1.00000000e+00  1.00000000e+00  1.00000000e+00  1.00000000e+00
Current cartesian coordinates              R   N=         102
 -2.83279601e-02 -9.67423708e-01  8.94128917e-01 -1.44872826e+00 -2.35586510e+00
  2.95312535e+00 -4.25888586e+00 -1.54937663e+00  3.28007674e+00 -4.79245555e-01
 -2.11724333e+00  4.76718243e+00 -1.42910789e+00 -4.38741811e+00  2.51731435e+00
 -5.65124251e+00 -3.15736410e+00  5.06962719e+00  1.65778648e+00  1.01251192e+00
  1.42892228e+00  2.92094697e+00  2.25425334e+00 -5.40820008e-01  2.55145104e+00
  1.58815371e+00 -3.07072407e+00  8.66200544e-01 -3.94238746e-01 -3.60707320e+00
 -3.86148953e-01 -1.64132489e+00 -1.64467938e+00 -1.66846531e+00 -3.18889694e+00
 -2.05637605e+00 -4.91679913e+00 -2.97604385e+00  6.84330884e+00 -5.49475845e+00
 -5.01708876e+00  4.59222349e+00  5.83780168e-01 -9.79745769e-01 -6.12441689e+00
 -1.09761008e+00 -2.95498828e+00 -6.80080699e+00 -1.02906712e+00 -3.07228501e+00
 -8.85962627e+00 -3.04029772e+00 -2.53706466e+00 -6.20011836e+00 -5.02154349e-01
 -4.77084423e+00 -5.98945328e+00  4.22856143e+00  3.77921582e+00 -1.30722573e-01
  1.97448529e+00  1.61971189e+00  3.93980216e+00  3.70902208e+00  3.55694588e+00
  4.58821705e+00  5.63510999e+00  3.09291274e+00  3.96780160e+00  3.66682191e+00
  3.68228827e+00  6.64750320e+00  3.14773106e+00  5.38474088e+00  3.77949874e+00
  3.91756281e+00  2.93537379e+00 -5.17863522e+00  5.15114279e+00  4.41777409e+00
 -4.42847564e+00  2.58518646e+00  3.80771113e+00 -6.50574518e+00  5.07788514e+00
  1.62279358e+00 -6.28694123e+00 -4.53906104e+00  1.20846152e+00  4.10180603e+00
 -5.19951274e+00 -1.77564281e+00  1.44170757e+00 -3.65130863e+00  1.51715663e+00
  5.95226227e+00 -6.54246991e+00  1.70459361e+00  4.25017465e+00 -3.63089839e+00
  2.48720557e+00  2.75318954e+00
Integer atomic weights                     I   N=          34
          12          12          12           1           1          14
          12          12          12          12          12           1
           1           1          15          12           1           1
           1           1          15          12           1           1
           1          12           1           1           1          12
           1           1           1           1
Real atomic weights                        R   N=          34
  1.20000000e+01  1.20000000e+01  1.20000000e+01  1.00782503e+00  1.00782503e+00
  1.40030740e+01  1.20000000e+01  1.20000000e+01  1.20000000e+01  1.20000000e+01
  1.20000000e+01  1.00782503e+00  1.00782503e+00  1.00782503e+00  1.59949146e+01
  1.20000000e+01  1.00782503e+00  1.00782503e+00  1.00782503e+00  1.00782503e+00
  1.59949146e+01  1.20000000e+01  1.00782503e+00  1.00782503e+00  1.00782503e+00
  1.20000000e+01  1.00782503e+00  1.00782503e+00  1.00782503e+00  1.20000000e+01
  1.00782503e+00  1.00782503e+00  1.00782503e+00  1.00782503e+00
Number of primitive shells                 I              331
Number of contracted shells                I              158
Pure/Cartesian d shells                    I                1
Pure/Cartesian f shells                    I                1
Highest angular momentum                   I                2
Largest degree of contraction              I                6
Shell types                                I   N=         158
           0           0           1           0           1           2
           0           1           0           0           1           0
           1           2           0           1           0           0
           1           0           1           2           0           1
           0           0           0           0           0           0
           1           0           1           2           0           1
           0           0           1           0           1           2
           0           1           0           0           1           0
           1           2           0           1           0           0
           1           0           1           2           0           1
           0           0           1           0           1           2
           0           1           0           0           1           0
           1           2           0           1           0           0
           0           0           0           0           0           0
           1           0           1           2           0           1
           0           0           1           0           1           2
           0           1           0           0           0           0
           0           0           0           0           0           0
           1           0           1           2           0           1
           0           0           1           0           1           2
           0           1           0           0           0           0
           0           0           0           0           1           0
           1           2           0           1           0           0
           0           0           0           0           0           0
           1           0           1           2           0           1
           0           0           0           0           0           0
           0           0
Number of primitives per shell             I   N=         158
           6           3           3           1           1           1
           1           1           6           3           3           1
           1           1           1           1           6           3
           3           1           1           1           1           1
           3           1           3           1           6           3
           3           1           1           1           1           1
           6           3           3           1           1           1
           1           1           6           3           3           1
           1           1           1           1           6           3
           3           1           1           1           1           1
           6           3           3           1           1           1
           1           1           6           3           3           1
           1           1           1           1           3           1
           3           1           3           1           6           3
           3           1           1           1           1           1
           6           3           3           1           1           1
           1           1           3           1           3           1
           3           1           3           1           6           3
           3           1           1           1           1           1
           6           3           3           1           1           1
           1           1           3           1           3           1
           3           1           6           3           3           1
           1           1           1           1           3           1
           3           1           3           1           6           3
           3           1           1           1           1           1
           3           1           3           1           3           1
           3           1
Shell to atom map                          I   N=         158
           1           1           1           1           1           1
           1           1           2           2           2           2
           2           2           2           2           3           3
           3           3           3           3           3           3
           4           4           5           5           6           6
           6           6           6           6           6           6
           7           7           7           7           7           7
           7           7           8           8           8           8
           8           8           8           8           9           9
           9           9           9           9           9           9
          10          10          10          10          10          10
          10          10          11          11          11          11
          11          11          11          11          12          12
          13          13          14          14          15          15
          15          15          15          15          15          15
          16          16          16          16          16          16
          16          16          17          17          18          18
          19          19          20          20          21          21
          21          21          21          21          21          21
          22          22          22          22          22          22
          22          22          23          23          24          24
          25          25          26          26          26          26
          26          26          26          26          27          27
          28          28          29          29          30          30
          30          30          30          30          30          30
          31          31          32          32          33          33
          34          34
Primitive exponents                        R   N=         331
  3.04752490e+03  4.57369510e+02  1.03948690e+02  2.92101550e+01  9.28666300e+00
  3.16392700e+00  7.86827240e+00  1.88128850e+00  5.44249300e-01  7.86827240e+00
  1.88128850e+00  5.44249300e-01  1.68714400e-01  1.68714400e-01  8.00000000e-01
  4.38000000e-02  4.38000000e-02  3.04752490e+03  4.57369510e+02  1.03948690e+02
  2.92101550e+01  9.28666300e+00  3.16392700e+00  7.86827240e+00  1.88128850e+00
  5.44249300e-01  7.86827240e+00  1.88128850e+00  5.44249300e-01  1.68714400e-01
  1.68714400e-01  8.00000000e-01  4.38000000e-02  4.38000000e-02  3.04752490e+03
  4.57369510e+02  1.03948690e+02  2.92101550e+01  9.28666300e+00  3.16392700e+00
  7.86827240e+00  1.88128850e+00  5.44249300e-01  7.86827240e+00  1.88128850e+00
  5.44249300e-01  1.68714400e-01  1.68714400e-01  8.00000000e-01  4.38000000e-02
  4.38000000e-02  1.87311370e+01  2.82539370e+00  6.40121700e-01  1.61277800e-01
  1.87311370e+01  2.82539370e+00  6.40121700e-01  1.61277800e-01  4.17351100e+03
  6.27457900e+02  1.42902100e+02  4.02343300e+01  1.28202100e+01  4.39043700e+00
  1.16263580e+01  2.71628000e+00  7.72218000e-01  1.16263580e+01  2.71628000e+00
  7.72218000e-01  2.12031300e-01  2.12031300e-01  8.00000000e-01  6.39000000e-02
  6.39000000e-02  3.04752490e+03  4.57369510e+02  1.03948690e+02  2.92101550e+01
  9.28666300e+00  3.16392700e+00  7.86827240e+00  1.88128850e+00  5.44249300e-01
  7.86827240e+00  1.88128850e+00  5.44249300e-01  1.68714400e-01  1.68714400e-01
  8.00000000e-01  4.38000000e-02  4.38000000e-02  3.04752490e+03  4.57369510e+02
  1.03948690e+02  2.92101550e+01  9.28666300e+00  3.16392700e+00  7.86827240e+00
  1.88128850e+00  5.44249300e-01  7.86827240e+00  1.88128850e+00  5.44249300e-01
  1.68714400e-01  1.68714400e-01  8.00000000e-01  4.38000000e-02  4.38000000e-02
  3.04752490e+03  4.57369510e+02  1.03948690e+02  2.92101550e+01  9.28666300e+00
  3.16392700e+00  7.86827240e+00  1.88128850e+00  5.44249300e-01  7.86827240e+00
  1.88128850e+00  5.44249300e-01  1.68714400e-01  1.68714400e-01  8.00000000e-01
  4.38000000e-02  4.38000000e-02  3.04752490e+03  4.57369510e+02  1.03948690e+02
  2.92101550e+01  9.28666300e+00  3.16392700e+00  7.86827240e+00  1.88128850e+00
  5.44249300e-01  7.86827240e+00  1.88128850e+00  5.44249300e-01  1.68714400e-01
  1.68714400e-01  8.00000000e-01  4.38000000e-02  4.38000000e-02  3.04752490e+03
  4.57369510e+02  1.03948690e+02  2.92101550e+01  9.28666300e+00  3.16392700e+00
  7.86827240e+00  1.88128850e+00  5.44249300e-01  7.86827240e+00  1.88128850e+00
  5.44249300e-01  1.68714400e-01  1.68714400e-01  8.00000000e-01  4.38000000e-02
  4.38000000e-02  1.87311370e+01  2.82539370e+00  6.40121700e-01  1.61277800e-01
  1.87311370e+01  2.82539370e+00  6.40121700e-01  1.61277800e-01  1.87311370e+01
  2.82539370e+00  6.40121700e-01  1.61277800e-01  5.48467170e+03  8.25234950e+02
  1.88046960e+02  5.29645000e+01  1.68975700e+01  5.79963530e+00  1.55396160e+01
  3.59993360e+00  1.01376180e+00  1.55396160e+01  3.59993360e+00  1.01376180e+00
  2.70005800e-01  2.70005800e-01  8.00000000e-01  8.45000000e-02  8.45000000e-02
  3.04752490e+03  4.57369510e+02  1.03948690e+02  2.92101550e+01  9.28666300e+00
  3.16392700e+00  7.86827240e+00  1.88128850e+00  5.44249300e-01  7.86827240e+00
  1.88128850e+00  5.44249300e-01  1.68714400e-01  1.68714400e-01  8.00000000e-01
  4.38000000e-02  4.38000000e-02  1.87311370e+01  2.82539370e+00  6.40121700e-01
  1.61277800e-01  1.87311370e+01  2.82539370e+00  6.40121700e-01  1.61277800e-01
  1.87311370e+01  2.82539370e+00  6.40121700e-01  1.61277800e-01  1.87311370e+01
  2.82539370e+00  6.40121700e-01  1.61277800e-01  5.48467170e+03  8.25234950e+02
  1.88046960e+02  5.29645000e+01  1.68975700e+01  5.79963530e+00  1.55396160e+01
  3.59993360e+00  1.01376180e+00  1.55396160e+01  3.59993360e+00  1.01376180e+00
  2.70005800e-01  2.70005800e-01  8.00000000e-01  8.45000000e-02  8.45000000e-02
  3.04752490e+03  4.57369510e+02  1.03948690e+02  2.92101550e+01  9.28666300e+00
  3.16392700e+00  7.86827240e+00  1.88128850e+00  5.44249300e-01  7.86827240e+00
  1.88128850e+00  5.44249300e-01  1.68714400e-01  1.68714400e-01  8.00000000e-01
  4.38000000e-02  4.38000000e-02  1.87311370e+01  2.82539370e+00  6.40121700e-01
  1.61277800e-01  1.87311370e+01  2.82539370e+00  6.40121700e-01  1.61277800e-01
  1.87311370e+01  2.82539370e+00  6.40121700e-01  1.61277800e-01  3.04752490e+03
  4.57369510e+02  1.03948690e+02  2.92101550e+01  9.28666300e+00  3.16392700e+00
  7.86827240e+00  1.88128850e+00  5.44249300e-01  7.86827240e+00  1.88128850e+00
  5.44249300e-01  1.68714400e-01  1.68714400e-01  8.00000000e-01  4.38000000e-02
  4.38000000e-02  1.87311370e+01  2.82539370e+00  6.40121700e-01  1.61277800e-01
  1.87311370e+01  2.82539370e+00  6.40121700e-01  1.61277800e-01  1.87311370e+01
  2.82539370e+00  6.40121700e-01  1.61277800e-01  3.04752490e+03  4.57369510e+02
  1.03948690e+02  2.92101550e+01  9.28666300e+00  3.16392700e+00  7.86827240e+00
  1.88128850e+00  5.44249300e-01  7.86827240e+00  1.88128850e+00  5.44249300e-01
  1.68714400e-01  1.68714400e-01  8.00000000e-01  4.38000000e-02  4.38000000e-02
  1.87311370e+01  2.82539370e+00  6.40121700e-01  1.61277800e-01  1.87311370e+01
  2.82539370e+00  6.40121700e-01  1.61277800e-01  1.87311370e+01  2.82539370e+00
  6.40121700e-01  1.61277800e-01  1.87311370e+01  2.82539370e+00  6.40121700e-01
  1.61277800e-01
Contraction coefficients                   R   N=         331
  1.83470016e-03  1.40373012e-02  6.88426061e-02  2.32184421e-01  4.67941342e-01
  3.62312032e-01 -1.19332409e-01 -1.60854212e-01  1.14345648e+00  6.89990956e-02
  3.16423980e-01  7.44308252e-01  1.00000000e+00  1.00000000e+00  1.00000000e+00
  1.00000000e+00  1.00000000e+00  1.83470016e-03  1.40373012e-02  6.88426061e-02
  2.32184421e-01  4.67941342e-01  3.62312032e-01 -1.19332409e-01 -1.60854212e-01
  1.14345648e+00  6.89990956e-02  3.16423980e-01  7.44308252e-01  1.00000000e+00
  1.00000000e+00  1.00000000e+00  1.00000000e+00  1.00000000e+00  1.83470016e-03
  1.40373012e-02  6.88426061e-02  2.32184421e-01  4.67941342e-01  3.62312032e-01
 -1.19332409e-01 -1.60854212e-01  1.14345648e+00  6.89990956e-02  3.16423980e-01
  7.44308252e-01  1.00000000e+00  1.00000000e+00  1.00000000e+00  1.00000000e+00
  1.00000000e+00  3.34945995e-02  2.34726947e-01  8.13757318e-01  1.00000000e+00
  3.34945995e-02  2.34726947e-01  8.13757318e-01  1.00000000e+00  1.83479944e-03
  1.39949958e-02  6.85869792e-02  2.32240930e-01  4.69069858e-01  3.60454891e-01
 -1.14961023e-01 -1.69118034e-01  1.14585223e+00  6.75800232e-02  3.23907111e-01
  7.40895255e-01  1.00000000e+00  1.00000000e+00  1.00000000e+00  1.00000000e+00
  1.00000000e+00  1.83470016e-03  1.40373012e-02  6.88426061e-02  2.32184421e-01
  4.67941342e-01  3.62312032e-01 -1.19332409e-01 -1.60854212e-01  1.14345648e+00
  6.89990956e-02  3.16423980e-01  7.44308252e-01  1.00000000e+00  1.00000000e+00
  1.00000000e+00  1.00000000e+00  1.00000000e+00  1.83470016e-03  1.40373012e-02
  6.88426061e-02  2.32184421e-01  4.67941342e-01  3.62312032e-01 -1.19332409e-01
 -1.60854212e-01  1.14345648e+00  6.89990956e-02  3.16423980e-01  7.44308252e-01
  1.00000000e+00  1.00000000e+00  1.00000000e+00  1.00000000e+00  1.00000000e+00
  1.83470016e-03  1.40373012e-02  6.88426061e-02  2.32184421e-01  4.67941342e-01
  3.62312032e-01 -1.19332409e-01 -1.60854212e-01  1.14345648e+00  6.89990956e-02
  3.16423980e-01  7.44308252e-01  1.00000000e+00  1.00000000e+00  1.00000000e+00
  1.00000000e+00  1.00000000e+00  1.83470016e-03  1.40373012e-02  6.88426061e-02
  2.32184421e-01  4.67941342e-01  3.62312032e-01 -1.19332409e-01 -1.60854212e-01
  1.14345648e+00  6.89990956e-02  3.16423980e-01  7.44308252e-01  1.00000000e+00
  1.00000000e+00  1.00000000e+00  1.00000000e+00  1.00000000e+00  1.83470016e-03
  1.40373012e-02  6.88426061e-02  2.32184421e-01  4.67941342e-01  3.62312032e-01
 -1.19332409e-01 -1.60854212e-01  1.14345648e+00  6.89990956e-02  3.16423980e-01
  7.44308252e-01  1.00000000e+00  1.00000000e+00  1.00000000e+00  1.00000000e+00
  1.00000000e+00  3.34945995e-02  2.34726947e-01  8.13757318e-01  1.00000000e+00
  3.34945995e-02  2.34726947e-01  8.13757318e-01  1.00000000e+00  3.34945995e-02
  2.34726947e-01  8.13757318e-01  1.00000000e+00  1.83109981e-03  1.39500985e-02
  6.84450927e-02  2.32714275e-01  4.70192950e-01  3.58520862e-01 -1.10777504e-01
 -1.48026305e-01  1.13076704e+00  7.08742995e-02  3.39752798e-01  7.27158595e-01
  1.00000000e+00  1.00000000e+00  1.00000000e+00  1.00000000e+00  1.00000000e+00
  1.83470016e-03  1.40373012e-02  6.88426061e-02  2.32184421e-01  4.67941342e-01
  3.62312032e-01 -1.19332409e-01 -1.60854212e-01  1.14345648e+00  6.89990956e-02
  3.16423980e-01  7.44308252e-01  1.00000000e+00  1.00000000e+00  1.00000000e+00
  1.00000000e+00  1.00000000e+00  3.34945995e-02  2.34726947e-01  8.13757318e-01
  1.00000000e+00  3.34945995e-02  2.34726947e-01  8.13757318e-01  1.00000000e+00
  3.34945995e-02  2.34726947e-01  8.13757318e-01  1.00000000e+00  3.34945995e-02
  2.34726947e-01  8.13757318e-01  1.00000000e+00  1.83109981e-03  1.39500985e-02
  6.84450927e-02  2.32714275e-01  4.70192950e-01  3.58520862e-01 -1.10777504e-01
 -1.48026305e-01  1.13076704e+00  7.08742995e-02  3.39752798e-01  7.27158595e-01
  1.00000000e+00  1.00000000e+00  1.00000000e+00  1.00000000e+00  1.00000000e+00
  1.83470016e-03  1.40373012e-02  6.88426061e-02  2.32184421e-01  4.67941342e-01
  3.62312032e-01 -1.19332409e-01 -1.60854212e-01  1.14345648e+00  6.89990956e-02
  3.16423980e-01  7.44308252e-01  1.00000000e+00  1.00000000e+00  1.00000000e+00
  1.00000000e+00  1.00000000e+00  3.34945995e-02  2.34726947e-01  8.13757318e-01
  1.00000000e+00  3.34945995e-02  2.34726947e-01  8.13757318e-01  1.00000000e+00
  3.34945995e-02  2.34726947e-01  8.13757318e-01  1.00000000e+00  1.83470016e-03
  1.40373012e-02  6.88426061e-02  2.32184421e-01  4.67941342e-01  3.62312032e-01
 -1.19332409e-01 -1.60854212e-01  1.14345648e+00  6.89990956e-02  3.16423980e-01
  7.44308252e-01  1.00000000e+00  1.00000000e+00  1.00000000e+00  1.00000000e+00
  1.00000000e+00  3.34945995e-02  2.34726947e-01  8.13757318e-01  1.00000000e+00
  3.34945995e-02  2.34726947e-01  8.13757318e-01  1.00000000e+00  3.34945995e-02
  2.34726947e-01  8.13757318e-01  1.00000000e+00  1.83470016e-03  1.40373012e-02
  6.88426061e-02  2.32184421e-01  4.67941342e-01  3.62312032e-01 -1.19332409e-01
 -1.60854212e-01  1.14345648e+00  6.89990956e-02  3.16423980e-01  7.44308252e-01
  1.00000000e+00  1.00000000e+00  1.00000000e+00  1.00000000e+00  1.00000000e+00
  3.34945995e-02  2.34726947e-01  8.13757318e-01  1.00000000e+00  3.34945995e-02
  2.34726947e-01  8.13757318e-01  1.00000000e+00  3.34945995e-02  2.34726947e-01
  8.13757318e-01  1.00000000e+00  3.34945995e-02  2.34726947e-01  8.13757318e-01
  1.00000000e+00
Coordinates of each shell                  R   N=         474
 -2.83279601e-02 -9.67423708e-01  8.94128917e-01 -2.83279601e-02 -9.67423708e-01
  8.94128917e-01 -2.83279601e-02 -9.67423708e-01  8.94128917e-01 -2.83279601e-02
 -9.67423708e-01  8.94128917e-01 -2.83279601e-02 -9.67423708e-01  8.94128917e-01
 -2.83279601e-02 -9.67423708e-01  8.94128917e-01 -2.83279601e-02 -9.67423708e-01
  8.94128917e-01 -2.83279601e-02 -9.67423708e-01  8.94128917e-01 -1.44872826e+00
 -2.35586510e+00  2.95312535e+00 -1.44872826e+00 -2.35586510e+00  2.95312535e+00
 -1.44872826e+00 -2.35586510e+00  2.95312535e+00 -1.44872826e+00 -2.35586510e+00
  2.95312535e+00 -1.44872826e+00 -2.35586510e+00  2.95312535e+00 -1.44872826e+00
 -2.35586510e+00  2.95312535e+00 -1.44872826e+00 -2.35586510e+00  2.95312535e+00
 -1.44872826e+00 -2.35586510e+00  2.95312535e+00 -4.25888586e+00 -1.54937663e+00
  3.28007674e+00 -4.25888586e+00 -1.54937663e+00  3.28007674e+00 -4.25888586e+00
 -1.54937663e+00  3.28007674e+00 -4.25888586e+00 -1.54937663e+00  3.28007674e+00
 -4.25888586e+00 -1.54937663e+00  3.28007674e+00 -4.25888586e+00 -1.54937663e+00
  3.28007674e+00 -4.25888586e+00 -1.54937663e+00  3.28007674e+00 -4.25888586e+00
 -1.54937663e+00  3.28007674e+00 -4.79245555e-01 -2.11724333e+00  4.76718243e+00
 -4.79245555e-01 -2.11724333e+00  4.76718243e+00 -1.42910789e+00 -4.38741811e+00
  2.51731435e+00 -1.42910789e+00 -4.38741811e+00  2.51731435e+00 -5.65124251e+00
 -3.15736410e+00  5.06962719e+00 -5.65124251e+00 -3.15736410e+00  5.06962719e+00
 -5.65124251e+00 -3.15736410e+00  5.06962719e+00 -5.65124251e+00 -3.15736410e+00
  5.06962719e+00 -5.65124251e+00 -3.15736410e+00  5.06962719e+00 -5.65124251e+00
 -3.15736410e+00  5.06962719e+00 -5.65124251e+00 -3.15736410e+00  5.06962719e+00
 -5.65124251e+00 -3.15736410e+00  5.06962719e+00  1.65778648e+00  1.01251192e+00
  1.42892228e+00  1.65778648e+00  1.01251192e+00  1.42892228e+00  1.65778648e+00
  1.01251192e+00  1.42892228e+00  1.65778648e+00  1.01251192e+00  1.42892228e+00
  1.65778648e+00  1.01251192e+00  1.42892228e+00  1.65778648e+00  1.01251192e+00
  1.42892228e+00  1.65778648e+00  1.01251192e+00  1.42892228e+00  1.65778648e+00
  1.01251192e+00  1.42892228e+00  2.92094697e+00  2.25425334e+00 -5.40820008e-01
  2.92094697e+00  2.25425334e+00 -5.40820008e-01  2.92094697e+00  2.25425334e+00
 -5.40820008e-01  2.92094697e+00  2.25425334e+00 -5.40820008e-01  2.92094697e+00
  2.25425334e+00 -5.40820008e-01  2.92094697e+00  2.25425334e+00 -5.40820008e-01
  2.92094697e+00  2.25425334e+00 -5.40820008e-01  2.92094697e+00  2.25425334e+00
 -5.40820008e-01  2.55145104e+00  1.58815371e+00 -3.07072407e+00  2.55145104e+00
  1.58815371e+00 -3.07072407e+00  2.55145104e+00  1.58815371e+00 -3.07072407e+00
  2.55145104e+00  1.58815371e+00 -3.07072407e+00  2.55145104e+00  1.58815371e+00
 -3.07072407e+00  2.55145104e+00  1.58815371e+00 -3.07072407e+00  2.55145104e+00
  1.58815371e+00 -3.07072407e+00  2.55145104e+00  1.58815371e+00 -3.07072407e+00
  8.66200544e-01 -3.94238746e-01 -3.60707320e+00  8.66200544e-01 -3.94238746e-01
 -3.60707320e+00  8.66200544e-01 -3.94238746e-01 -3.60707320e+00  8.66200544e-01
 -3.94238746e-01 -3.60707320e+00  8.66200544e-01 -3.94238746e-01 -3.60707320e+00
  8.66200544e-01 -3.94238746e-01 -3.60707320e+00  8.66200544e-01 -3.94238746e-01
 -3.60707320e+00  8.66200544e-01 -3.94238746e-01 -3.60707320e+00 -3.86148953e-01
 -1.64132489e+00 -1.64467938e+00 -3.86148953e-01 -1.64132489e+00 -1.64467938e+00
 -3.86148953e-01 -1.64132489e+00 -1.64467938e+00 -3.86148953e-01 -1.64132489e+00
 -1.64467938e+00 -3.86148953e-01 -1.64132489e+00 -1.64467938e+00 -3.86148953e-01
 -1.64132489e+00 -1.64467938e+00 -3.86148953e-01 -1.64132489e+00 -1.64467938e+00
 -3.86148953e-01 -1.64132489e+00 -1.64467938e+00 -1.66846531e+00 -3.18889694e+00
 -2.05637605e+00 -1.66846531e+00 -3.18889694e+00 -2.05637605e+00 -4.91679913e+00
 -2.97604385e+00  6.84330884e+00 -4.91679913e+00 -2.97604385e+00  6.84330884e+00
 -5.49475845e+00 -5.01708876e+00  4.59222349e+00 -5.49475845e+00 -5.01708876e+00
  4.59222349e+00  5.83780168e-01 -9.79745769e-01 -6.12441689e+00  5.83780168e-01
 -9.79745769e-01 -6.12441689e+00  5.83780168e-01 -9.79745769e-01 -6.12441689e+00
  5.83780168e-01 -9.79745769e-01 -6.12441689e+00  5.83780168e-01 -9.79745769e-01
 -6.12441689e+00  5.83780168e-01 -9.79745769e-01 -6.12441689e+00  5.83780168e-01
 -9.79745769e-01 -6.12441689e+00  5.83780168e-01 -9.79745769e-01 -6.12441689e+00
 -1.09761008e+00 -2.95498828e+00 -6.80080699e+00 -1.09761008e+00 -2.95498828e+00
 -6.80080699e+00 -1.09761008e+00 -2.95498828e+00 -6.80080699e+00 -1.09761008e+00
 -2.95498828e+00 -6.80080699e+00 -1.09761008e+00 -2.95498828e+00 -6.80080699e+00
 -1.09761008e+00 -2.95498828e+00 -6.80080699e+00 -1.09761008e+00 -2.95498828e+00
 -6.80080699e+00 -1.09761008e+00 -2.95498828e+00 -6.80080699e+00 -1.02906712e+00
 -3.07228501e+00 -8.85962627e+00 -1.02906712e+00 -3.07228501e+00 -8.85962627e+00
 -3.04029772e+00 -2.53706466e+00 -6.20011836e+00 -3.04029772e+00 -2.53706466e+00
 -6.20011836e+00 -5.02154349e-01 -4.77084423e+00 -5.98945328e+00 -5.02154349e-01
 -4.77084423e+00 -5.98945328e+00  4.22856143e+00  3.77921582e+00 -1.30722573e-01
  4.22856143e+00  3.77921582e+00 -1.30722573e-01  1.97448529e+00  1.61971189e+00
  3.93980216e+00  1.97448529e+00  1.61971189e+00  3.93980216e+00  1.97448529e+00
  1.61971189e+00  3.93980216e+00  1.97448529e+00  1.61971189e+00  3.93980216e+00
  1.97448529e+00  1.61971189e+00  3.93980216e+00  1.97448529e+00  1.61971189e+00
  3.93980216e+00  1.97448529e+00  1.61971189e+00  3.93980216e+00  1.97448529e+00
  1.61971189e+00  3.93980216e+00  3.70902208e+00  3.55694588e+00  4.58821705e+00
  3.70902208e+00  3.55694588e+00  4.58821705e+00  3.70902208e+00  3.55694588e+00
  4.58821705e+00  3.70902208e+00  3.55694588e+00  4.58821705e+00  3.70902208e+00
  3.55694588e+00  4.58821705e+00  3.70902208e+00  3.55694588e+00  4.58821705e+00
  3.70902208e+00  3.55694588e+00  4.58821705e+00  3.70902208e+00  3.55694588e+00
  4.58821705e+00  5.63510999e+00  3.09291274e+00  3.96780160e+00  5.63510999e+00
  3.09291274e+00  3.96780160e+00  3.66682191e+00  3.68228827e+00  6.64750320e+00
  3.66682191e+00  3.68228827e+00  6.64750320e+00  3.14773106e+00  5.38474088e+00
  3.77949874e+00  3.14773106e+00  5.38474088e+00  3.77949874e+00  3.91756281e+00
  2.93537379e+00 -5.17863522e+00  3.91756281e+00  2.93537379e+00 -5.17863522e+00
  3.91756281e+00  2.93537379e+00 -5.17863522e+00  3.91756281e+00  2.93537379e+00
 -5.17863522e+00  3.91756281e+00  2.93537379e+00 -5.17863522e+00  3.91756281e+00
  2.93537379e+00 -5.17863522e+00  3.91756281e+00  2.93537379e+00 -5.17863522e+00
  3.91756281e+00  2.93537379e+00 -5.17863522e+00  5.15114279e+00  4.41777409e+00
 -4.42847564e+00  5.15114279e+00  4.41777409e+00 -4.42847564e+00  2.58518646e+00
  3.80771113e+00 -6.50574518e+00  2.58518646e+00  3.80771113e+00 -6.50574518e+00
  5.07788514e+00  1.62279358e+00 -6.28694123e+00  5.07788514e+00  1.62279358e+00
 -6.28694123e+00 -4.53906104e+00  1.20846152e+00  4.10180603e+00 -4.53906104e+00
  1.20846152e+00  4.10180603e+00 -4.53906104e+00  1.20846152e+00  4.10180603e+00
 -4.53906104e+00  1.20846152e+00  4.10180603e+00 -4.53906104e+00  1.20846152e+00
  4.10180603e+00 -4.53906104e+00  1.20846152e+00  4.10180603e+00 -4.53906104e+00
  1.20846152e+00  4.10180603e+00 -4.53906104e+00  1.20846152e+00  4.10180603e+00
 -5.19951274e+00 -1.77564281e+00  1.44170757e+00 -5.19951274e+00 -1.77564281e+00
  1.44170757e+00 -3.65130863e+00  1.51715663e+00  5.95226227e+00 -3.65130863e+00
  1.51715663e+00  5.95226227e+00 -6.54246991e+00  1.70459361e+00  4.25017465e+00
 -6.54246991e+00  1.70459361e+00  4.25017465e+00 -3.63089839e+00  2.48720557e+00
  2.75318954e+00 -3.63089839e+00  2.48720557e+00  2.75318954e+00
Total Energy                               R     -6.739226913139139e+02
Alpha Orbital Energies                     R   N=         323
 -1.91825906e+01 -1.91818350e+01 -1.43174810e+01 -1.02435715e+01 -1.02435058e+01
 -1.02433573e+01 -1.02424404e+01 -1.02144806e+01 -1.01974563e+01 -1.01947663e+01
 -1.01900822e+01 -1.01899947e+01 -1.01831539e+01 -1.01815566e+01 -1.01674057e+01
 -1.06463168e+00 -1.06369240e+00 -8.86128904e-01 -8.55883250e-01 -7.93491337e-01
 -7.53867839e-01 -7.40747705e-01 -7.20863183e-01 -7.05453919e-01 -6.88422933e-01