Generated by Psi4
     FORCE                           RHF                       TESTBAS
Number of atoms                            I               37
Charge                                     I                0
Multiplicity                               I                1
Number of electrons                        I              122
Number of alpha electrons                  I               61
Number of beta electrons                   I               61
Number of basis functions                  I              346
Number of independent functions            I              346
Atomic numbers                             I   N=          37
           6           6           6           1           1           7
           6           6           6           6           6           1
           6           1           1           1           1           1
           1           8           6           1           1           1
           6           6           1           1           1           1
           1           1           8           6           1           1
           1
Nuclear charges                            R   N=          37
  6.00000000e+00  6.00000000e+00  6.00000000e+00  1.00000000e+00  1.00000000e+00
  7.00000000e+00  6.00000000e+00  6.00000000e+00  6.00000000e+00  6.00000000e+00
  6.00000000e+00  1.00000000e+00  6.00000000e+00  1.00000000e+00  1.00000000e+00
  1.00000000e+00  1.00000000e+00  1.00000000e+00  1.00000000e+00  8.00000000e+00
  6.00000000e+00  1.00000000e+00  1.00000000e+00  1.00000000e+00  6.00000000e+00
  6.00000000e+00  1.00000000e+00  1.00000000e+00  1.00000000e+00  1.00000000e+00
  1.00000000e+00  1.00000000e+00  8.00000000e+00  6.00000000e+00  1.00000000e+00
  1.00000000e+00  1.00000000e+00
Current cartesian coordinates              R   N=         111
 -3.91786645e-01 -1.11013108e+00  1.24889346e+00 -1.75659122e+00 -2.58984650e+00
  3.28151623e+00 -4.56893043e+00 -1.82872776e+00  3.69024370e+00 -7.55520922e-01
 -2.40596765e+00  5.08470891e+00 -1.72263042e+00 -4.60371336e+00  2.77115382e+00
 -5.90775033e+00 -3.51481223e+00  5.44817741e+00  1.28071970e+00  8.70574463e-01
  1.82529500e+00  2.48330706e+00  2.20229832e+00 -1.21340566e-01  2.07648512e+00
  1.62721927e+00 -2.66981652e+00  4.05016943e-01 -3.57057502e-01 -3.24639955e+00
 -7.93541694e-01 -1.69010627e+00 -1.30513901e+00 -2.06882973e+00 -3.23462545e+00
 -1.74858015e+00 -4.86399537e+00  8.95309390e-01  4.61323162e+00 -5.54229297e+00
 -2.00188788e+00  1.86317163e+00 -3.94092812e+00  1.15108531e+00  6.45441700e+00
 -6.86964707e+00  1.36048026e+00  4.82021210e+00 -4.00030467e+00  2.23143006e+00
  3.29128615e+00 -5.14226376e+00 -3.38593244e+00  7.21328253e+00 -5.73875244e+00
 -5.35485598e+00  4.90355182e+00  6.39978179e-02 -8.61785433e-01 -5.77551981e+00
 -1.65031423e+00 -2.79803704e+00 -6.47989109e+00 -1.64138814e+00 -2.83426873e+00
 -8.54287649e+00 -3.57209632e+00 -2.39285315e+00 -5.80774692e+00 -1.04532995e+00
 -4.64877834e+00 -5.75936797e+00  3.43619573e+00  3.06805055e+00 -4.73248912e+00
  5.76003282e+00  1.66382121e+00 -5.78440373e+00  4.03378946e+00  4.90650201e+00
 -3.98069514e+00  2.12350484e+00  3.45165081e+00 -6.28880773e+00  7.14877547e+00
  1.30081121e+00 -4.28946804e+00  6.68504124e+00  2.78707250e+00 -7.26152670e+00
  5.21247411e+00 -1.53994159e-01 -6.60724515e+00  3.77066786e+00  3.73674191e+00
  3.19634522e-01  1.63723056e+00  1.38839354e+00  4.35031633e+00  3.35238067e+00
  3.32985344e+00  5.03709867e+00  5.27293140e+00  2.92264232e+00  4.36184337e+00
  3.34968236e+00  3.37757275e+00  7.10014890e+00  2.74433167e+00  5.17652349e+00
  4.30882961e+00
Integer atomic weights                     I   N=          37
          12          12          12           1           1          14
          12          12          12          12          12           1
          12           1           1           1           1           1
           1          15          12           1           1           1
          12          12           1           1           1           1
           1           1          15          12           1           1
           1
Real atomic weights                        R   N=          37
  1.20000000e+01  1.20000000e+01  1.20000000e+01  1.00782503e+00  1.00782503e+00
  1.40030740e+01  1.20000000e+01  1.20000000e+01  1.20000000e+01  1.20000000e+01
  1.20000000e+01  1.00782503e+00  1.20000000e+01  1.00782503e+00  1.00782503e+00
  1.00782503e+00  1.00782503e+00  1.00782503e+00  1.00782503e+00  1.59949146e+01
  1.20000000e+01  1.00782503e+00  1.00782503e+00  1.00782503e+00  1.20000000e+01
  1.20000000e+01  1.00782503e+00  1.00782503e+00  1.00782503e+00  1.00782503e+00
  1.00782503e+00  1.00782503e+00  1.59949146e+01  1.20000000e+01  1.00782503e+00
  1.00782503e+00  1.00782503e+00
Number of primitive shells                 I              356
Number of contracted shells                I              170
Pure/Cartesian d shells                    I                1
Pure/Cartesian f shells                    I                1
Highest angular momentum                   I                2
Largest degree of contraction              I                6
Shell types                                I   N=         170
           0           0           1           0           1           2
           0           1           0           0           1           0
           1           2           0           1           0           0
           1           0           1           2           0           1
           0           0           0           0           0           0
           1           0           1           2           0           1
           0           0           1           0           1           2
           0           1           0           0           1           0
           1           2           0           1           0           0
           1           0           1           2           0           1
           0           0           1           0           1           2
           0           1           0           0           1           0
           1           2           0           1           0           0
           0           0           1           0           1           2
           0           1           0           0           0           0
           0           0           0           0           0           0
           0           0           0           0           1           0
           1           2           0           1           0           0
           1           0           1           2           0           1
           0           0           0           0           0           0
           0           0           1           0           1           2
           0           1           0           0           1           0
           1           2           0           1           0           0
           0           0           0           0           0           0
           0           0           0           0           0           0
           1           0           1           2           0           1
           0           0           1           0           1           2
           0           1           0           0           0           0
           0           0
Number of primitives per shell             I   N=         170
           6           3           3           1           1           1
           1           1           6           3           3           1
           1           1           1           1           6           3
           3           1           1           1           1           1
           3           1           3           1           6           3
           3           1           1           1           1           1
           6           3           3           1           1           1
           1           1           6           3           3           1
           1           1           1           1           6           3
           3           1           1           1           1           1
           6           3           3           1           1           1
           1           1           6           3           3           1
           1           1           1           1           3           1
           6           3           3           1           1           1
           1           1           3           1           3           1
           3           1           3           1           3           1
           3           1           6           3           3           1
           1           1           1           1           6           3
           3           1           1           1           1           1
           3           1           3           1           3           1
           6           3           3           1           1           1
           1           1           6           3           3           1
           1           1           1           1           3           1
           3           1           3           1           3           1
           3           1           3           1           6           3
           3           1           1           1           1           1
           6           3           3           1           1           1
           1           1           3           1           3           1
           3           1
Shell to atom map                          I   N=         170
           1           1           1           1           1           1
           1           1           2           2           2           2
           2           2           2           2           3           3
           3           3           3           3           3           3
           4           4           5           5           6           6
           6           6           6           6           6           6
           7           7           7           7           7           7
           7           7           8           8           8           8
           8           8           8           8           9           9
           9           9           9           9           9           9
          10          10          10          10          10          10
          10          10          11          11          11          11
          11          11          11          11          12          12
          13          13          13          13          13          13
          13          13          14          14          15          15
          16          16          17          17          18          18
          19          19          20          20          20          20
          20          20          20          20          21          21
          21          21          21          21          21          21
          22          22          23          23          24          24
          25          25          25          25          25          25
          25          25          26          26          26          26
          26          26          26          26          27          27
          28          28          29          29          30          30
          31          31          32          32          33          33
          33          33          33          33          33          33
          34          34          34          34          34          34
          34          34          35          35          36          36
          37          37
Primitive exponents                        R   N=         356
  3.04752490e+03  4.57369510e+02  1.03948690e+02  2.92101550e+01  9.28666300e+00
  3.16392700e+00  7.86827240e+00  1.88128850e+00  5.44249300e-01  7.86827240e+00
  1.88128850e+00  5.44249300e-01  1.68714400e-01  1.68714400e-01  8.00000000e-01
  4.38000000e-02  4.38000000e-02  3.04752490e+03  4.57369510e+02  1.03948690e+02
  2.92101550e+01  9.28666300e+00  3.16392700e+00  7.86827240e+00  1.88128850e+00
  5.44249300e-01  7.86827240e+00  1.88128850e+00  5.44249300e-01  1.68714400e-01
  1.68714400e-01  8.00000000e-01  4.38000000e-02  4.38000000e-02  3.04752490e+03
  4.57369510e+02  1.03948690e+02  2.92101550e+01  9.28666300e+00  3.16392700e+00
  7.86827240e+00  1.88128850e+00  5.44249300e-01  7.86827240e+00  1.88128850e+00
  5.44249300e-01  1.68714400e-01  1.68714400e-01  8.00000000e-01  4.38000000e-02
  4.38000000e-02  1.87311370e+01  2.82539370e+00  6.40121700e-01  1.61277800e-01
  1.87311370e+01  2.82539370e+00  6.40121700e-01  1.61277800e-01  4.17351100e+03
  6.27457900e+02  1.42902100e+02  4.02343300e+01  1.28202100e+01  4.39043700e+00
  1.16263580e+01  2.71628000e+00  7.72218000e-01  1.16263580e+01  2.71628000e+00
  7.72218000e-01  2.12031300e-01  2.12031300e-01  8.00000000e-01  6.39000000e-02
  6.39000000e-02  3.04752490e+03  4.57369510e+02  1.03948690e+02  2.92101550e+01
  9.28666300e+00  3.16392700e+00  7.86827240e+00  1.88128850e+00  5.44249300e-01
  7.86827240e+00  1.88128850e+00  5.44249300e-01  1.68714400e-01  1.68714400e-01
  8.00000000e-01  4.38000000e-02  4.38000000e-02  3.04752490e+03  4.57369510e+02
  1.03948690e+02  2.92101550e+01  9.28666300e+00  3.16392700e+00  7.86827240e+00
  1.88128850e+00  5.44249300e-01  7.86827240e+00  1.88128850e+00  5.44249300e-01
  1.68714400e-01  1.68714400e-01  8.00000000e-01  4.38000000e-02  4.38000000e-02
  3.04752490e+03  4.57369510e+02  1.03948690e+02  2.92101550e+01  9.28666300e+00
  3.16392700e+00  7.86827240e+00  1.88128850e+00  5.44249300e-01  7.86827240e+00
  1.88128850e+00  5.44249300e-01  1.68714400e-01  1.68714400e-01  8.00000000e-01
  4.38000000e-02  4.38000000e-02  3.04752490e+03  4.57369510e+02  1.03948690e+02
  2.92101550e+01  9.28666300e+00  3.16392700e+00  7.86827240e+00  1.88128850e+00
  5.44249300e-01  7.86827240e+00  1.88128850e+00  5.44249300e-01  1.68714400e-01
  1.68714400e-01  8.00000000e-01  4.38000000e-02  4.38000000e-02  3.04752490e+03
  4.57369510e+02  1.03948690e+02  2.92101550e+01  9.28666300e+00  3.16392700e+00
  7.86827240e+00  1.88128850e+00  5.44249300e-01  7.86827240e+00  1.88128850e+00
  5.44249300e-01  1.68714400e-01  1.68714400e-01  8.00000000e-01  4.38000000e-02
  4.38000000e-02  1.87311370e+01  2.82539370e+00  6.40121700e-01  1.61277800e-01
  3.04752490e+03  4.57369510e+02  1.03948690e+02  2.92101550e+01  9.28666300e+00
  3.16392700e+00  7.86827240e+00  1.88128850e+00  5.44249300e-01  7.86827240e+00
  1.88128850e+00  5.44249300e-01  1.68714400e-01  1.68714400e-01  8.00000000e-01
  4.38000000e-02  4.38000000e-02  1.87311370e+01  2.82539370e+00  6.40121700e-01
  1.61277800e-01  1.87311370e+01  2.82539370e+00  6.40121700e-01  1.61277800e-01
  1.87311370e+01  2.82539370e+00  6.40121700e-01  1.61277800e-01  1.87311370e+01
  2.82539370e+00  6.40121700e-01  1.61277800e-01  1.87311370e+01  2.82539370e+00
  6.40121700e-01  1.61277800e-01  1.87311370e+01  2.82539370e+00  6.40121700e-01
  1.61277800e-01  5.48467170e+03  8.25234950e+02  1.88046960e+02  5.29645000e+01
  1.68975700e+01  5.79963530e+00  1.55396160e+01  3.59993360e+00  1.01376180e+00
  1.55396160e+01  3.59993360e+00  1.01376180e+00  2.70005800e-01  2.70005800e-01
  8.00000000e-01  8.45000000e-02  8.45000000e-02  3.04752490e+03  4.57369510e+02
  1.03948690e+02  2.92101550e+01  9.28666300e+00  3.16392700e+00  7.86827240e+00
  1.88128850e+00  5.44249300e-01  7.86827240e+00  1.88128850e+00  5.44249300e-01
  1.68714400e-01  1.68714400e-01  8.00000000e-01  4.38000000e-02  4.38000000e-02
  1.87311370e+01  2.82539370e+00  6.40121700e-01  1.61277800e-01  1.87311370e+01
  2.82539370e+00  6.40121700e-01  1.61277800e-01  1.87311370e+01  2.82539370e+00
  6.40121700e-01  1.61277800e-01  3.04752490e+03  4.57369510e+02  1.03948690e+02
  2.92101550e+01  9.28666300e+00  3.16392700e+00  7.86827240e+00  1.88128850e+00
  5.44249300e-01  7.86827240e+00  1.88128850e+00  5.44249300e-01  1.68714400e-01
  1.68714400e-01  8.00000000e-01  4.38000000e-02  4.38000000e-02  3.04752490e+03
  4.57369510e+02  1.03948690e+02  2.92101550e+01  9.28666300e+00  3.16392700e+00
  7.86827240e+00  1.88128850e+00  5.44249300e-01  7.86827240e+00  1.88128850e+00
  5.44249300e-01  1.68714400e-01  1.68714400e-01  8.00000000e-01  4.38000000e-02
  4.38000000e-02  1.87311370e+01  2.82539370e+00  6.40121700e-01  1.61277800e-01
  1.87311370e+01  2.82539370e+00  6.40121700e-01  1.61277800e-01  1.87311370e+01
  2.82539370e+00  6.40121700e-01  1.61277800e-01  1.87311370e+01  2.82539370e+00
  6.40121700e-01  1.61277800e-01  1.87311370e+01  2.82539370e+00  6.40121700e-01
  1.61277800e-01  1.87311370e+01  2.82539370e+00  6.40121700e-01  1.61277800e-01
  5.48467170e+03  8.25234950e+02  1.88046960e+02  5.29645000e+01  1.68975700e+01
  5.79963530e+00  1.55396160e+01  3.59993360e+00  1.01376180e+00  1.55396160e+01
  3.59993360e+00  1.01376180e+00  2.70005800e-01  2.70005800e-01  8.00000000e-01
  8.45000000e-02  8.45000000e-02  3.04752490e+03  4.57369510e+02  1.03948690e+02
  2.92101550e+01  9.28666300e+00  3.16392700e+00  7.86827240e+00  1.88128850e+00
  5.44249300e-01  7.86827240e+00  1.88128850e+00  5.44249300e-01  1.68714400e-01
  1.68714400e-01  8.00000000e-01  4.38000000e-02  4.38000000e-02  1.87311370e+01
  2.82539370e+00  6.40121700e-01  1.61277800e-01  1.87311370e+01  2.82539370e+00
  6.40121700e-01  1.61277800e-01  1.87311370e+01  2.82539370e+00  6.40121700e-01
  1.61277800e-01
Contraction coefficients                   R   N=         356
  1.83470016e-03  1.40373012e-02  6.88426061e-02  2.32184421e-01  4.67941342e-01
  3.62312032e-01 -1.19332409e-01 -1.60854212e-01  1.14345648e+00  6.89990956e-02
  3.16423980e-01  7.44308252e-01  1.00000000e+00  1.00000000e+00  1.00000000e+00
  1.00000000e+00  1.00000000e+00  1.83470016e-03  1.40373012e-02  6.88426061e-02
  2.32184421e-01  4.67941342e-01  3.62312032e-01 -1.19332409e-01 -1.60854212e-01
  1.14345648e+00  6.89990956e-02  3.16423980e-01  7.44308252e-01  1.00000000e+00
  1.00000000e+00  1.00000000e+00  1.00000000e+00  1.00000000e+00  1.83470016e-03
  1.40373012e-02  6.88426061e-02  2.32184421e-01  4.67941342e-01  3.62312032e-01
 -1.19332409e-01 -1.60854212e-01  1.14345648e+00  6.89990956e-02  3.16423980e-01
  7.44308252e-01  1.00000000e+00  1.00000000e+00  1.00000000e+00  1.00000000e+00
  1.00000000e+00  3.34945995e-02  2.34726947e-01  8.13757318e-01  1.00000000e+00
  3.34945995e-02  2.34726947e-01  8.13757318e-01  1.00000000e+00  1.83479944e-03
  1.39949958e-02  6.85869792e-02  2.32240930e-01  4.69069858e-01  3.60454891e-01
 -1.14961023e-01 -1.69118034e-01  1.14585223e+00  6.75800232e-02  3.23907111e-01
  7.40895255e-01  1.00000000e+00  1.00000000e+00  1.00000000e+00  1.00000000e+00
  1.00000000e+00  1.83470016e-03  1.40373012e-02  6.88426061e-02  2.32184421e-01
  4.67941342e-01  3.62312032e-01 -1.19332409e-01 -1.60854212e-01  1.14345648e+00
  6.89990956e-02  3.16423980e-01  7.44308252e-01  1.00000000e+00  1.00000000e+00
  1.00000000e+00  1.00000000e+00  1.00000000e+00  1.83470016e-03  1.40373012e-02
  6.88426061e-02  2.32184421e-01  4.67941342e-01  3.62312032e-01 -1.19332409e-01
 -1.60854212e-01  1.14345648e+00  6.89990956e-02  3.16423980e-01  7.44308252e-01
  1.00000000e+00  1.00000000e+00  1.00000000e+00  1.00000000e+00  1.00000000e+00
  1.83470016e-03  1.40373012e-02  6.88426061e-02  2.32184421e-01  4.67941342e-01
  3.62312032e-01 -1.19332409e-01 -1.60854212e-01  1.14345648e+00  6.89990956e-02
  3.16423980e-01  7.44308252e-01  1.00000000e+00  1.00000000e+00  1.00000000e+00
  1.00000000e+00  1.00000000e+00  1.83470016e-03  1.40373012e-02  6.88426061e-02
  2.32184421e-01  4.67941342e-01  3.62312032e-01 -1.19332409e-01 -1.60854212e-01
  1.14345648e+00  6.89990956e-02  3.16423980e-01  7.44308252e-01  1.00000000e+00
  1.00000000e+00  1.00000000e+00  1.00000000e+00  1.00000000e+00  1.83470016e-03
  1.40373012e-02  6.88426061e-02  2.32184421e-01  4.67941342e-01  3.62312032e-01
 -1.19332409e-01 -1.60854212e-01  1.14345648e+00  6.89990956e-02  3.16423980e-01
  7.44308252e-01  1.00000000e+00  1.00000000e+00  1.00000000e+00  1.00000000e+00
  1.00000000e+00  3.34945995e-02  2.34726947e-01  8.13757318e-01  1.00000000e+00
  1.83470016e-03  1.40373012e-02  6.88426061e-02  2.32184421e-01  4.67941342e-01
  3.62312032e-01 -1.19332409e-01 -1.60854212e-01  1.14345648e+00  6.89990956e-02
  3.16423980e-01  7.44308252e-01  1.00000000e+00  1.00000000e+00  1.00000000e+00
  1.00000000e+00  1.00000000e+00  3.34945995e-02  2.34726947e-01  8.13757318e-01
  1.00000000e+00  3.34945995e-02  2.34726947e-01  8.13757318e-01  1.00000000e+00
  3.34945995e-02  2.34726947e-01  8.13757318e-01  1.00000000e+00  3.34945995e-02
  2.34726947e-01  8.13757318e-01  1.00000000e+00  3.34945995e-02  2.34726947e-01
  8.13757318e-01  1.00000000e+00  3.34945995e-02  2.34726947e-01  8.13757318e-01
  1.00000000e+00  1.83109981e-03  1.39500985e-02  6.84450927e-02  2.32714275e-01
  4.70192950e-01  3.58520862e-01 -1.10777504e-01 -1.48026305e-01  1.13076704e+00
  7.08742995e-02  3.39752798e-01  7.27158595e-01  1.00000000e+00  1.00000000e+00
  1.00000000e+00  1.00000000e+00  1.00000000e+00  1.83470016e-03  1.40373012e-02
  6.88426061e-02  2.32184421e-01  4.67941342e-01  3.62312032e-01 -1.19332409e-01
 -1.60854212e-01  1.14345648e+00  6.89990956e-02  3.16423980e-01  7.44308252e-01
  1.00000000e+00  1.00000000e+00  1.00000000e+00  1.00000000e+00  1.00000000e+00
  3.34945995e-02  2.34726947e-01  8.13757318e-01  1.00000000e+00  3.34945995e-02
  2.34726947e-01  8.13757318e-01  1.00000000e+00  3.34945995e-02  2.34726947e-01
  8.13757318e-01  1.00000000e+00  1.83470016e-03  1.40373012e-02  6.88426061e-02
  2.32184421e-01  4.67941342e-01  3.62312032e-01 -1.19332409e-01 -1.60854212e-01
  1.14345648e+00  6.89990956e-02  3.16423980e-01  7.44308252e-01  1.00000000e+00
  1.00000000e+00  1.00000000e+00  1.00000000e+00  1.00000000e+00  1.83470016e-03
  1.40373012e-02  6.88426061e-02  2.32184421e-01  4.67941342e-01  3.62312032e-01
 -1.19332409e-01 -1.60854212e-01  1.14345648e+00  6.89990956e-02  3.16423980e-01
  7.44308252e-01  1.00000000e+00  1.00000000e+00  1.00000000e+00  1.00000000e+00
  1.00000000e+00  3.34945995e-02  2.34726947e-01  8.13757318e-01  1.00000000e+00
  3.34945995e-02  2.34726947e-01  8.13757318e-01  1.00000000e+00  3.34945995e-02
  2.34726947e-01  8.13757318e-01  1.00000000e+00  3.34945995e-02  2.34726947e-01
  8.13757318e-01  1.00000000e+00  3.34945995e-02  2.34726947e-01  8.13757318e-01
  1.00000000e+00  3.34945995e-02  2.34726947e-01  8.13757318e-01  1.00000000e+00
  1.83109981e-03  1.39500985e-02  6.84450927e-02  2.32714275e-01  4.70192950e-01
  3.58520862e-01 -1.10777504e-01 -1.48026305e-01  1.13076704e+00  7.08742995e-02
  3.39752798e-01  7.27158595e-01  1.00000000e+00  1.00000000e+00  1.00000000e+00
  1.00000000e+00  1.00000000e+00  1.83470016e-03  1.40373012e-02  6.88426061e-02
  2.32184421e-01  4.67941342e-01  3.62312032e-01 -1.19332409e-01 -1.60854212e-01
  1.14345648e+00  6.89990956e-02  3.16423980e-01  7.44308252e-01  1.00000000e+00
  1.00000000e+00  1.00000000e+00  1.00000000e+00  1.00000000e+00  3.34945995e-02
  2.34726947e-01  8.13757318e-01  1.00000000e+00  3.34945995e-02  2.34726947e-01
  8.13757318e-01  1.00000000e+00  3.34945995e-02  2.34726947e-01  8.13757318e-01
  1.00000000e+00
Coordinates of each shell                  R   N=         510
 -3.91786645e-01 -1.11013108e+00  1.24889346e+00 -3.91786645e-01 -1.11013108e+00
  1.24889346e+00 -3.91786645e-01 -1.11013108e+00  1.24889346e+00 -3.91786645e-01
 -1.11013108e+00  1.24889346e+00 -3.91786645e-01 -1.11013108e+00  1.24889346e+00
 -3.91786645e-01 -1.11013108e+00  1.24889346e+00 -3.91786645e-01 -1.11013108e+00
  1.24889346e+00 -3.91786645e-01 -1.11013108e+00  1.24889346e+00 -1.75659122e+00
 -2.58984650e+00  3.28151623e+00 -1.75659122e+00 -2.58984650e+00  3.28151623e+00
 -1.75659122e+00 -2.58984650e+00  3.28151623e+00 -1.75659122e+00 -2.58984650e+00
  3.28151623e+00 -1.75659122e+00 -2.58984650e+00  3.28151623e+00 -1.75659122e+00
 -2.58984650e+00  3.28151623e+00 -1.75659122e+00 -2.58984650e+00  3.28151623e+00
 -1.75659122e+00 -2.58984650e+00  3.28151623e+00 -4.56893043e+00 -1.82872776e+00
  3.69024370e+00 -4.56893043e+00 -1.82872776e+00  3.69024370e+00 -4.56893043e+00
 -1.82872776e+00  3.69024370e+00 -4.56893043e+00 -1.82872776e+00  3.69024370e+00
 -4.56893043e+00 -1.82872776e+00  3.69024370e+00 -4.56893043e+00 -1.82872776e+00
  3.69024370e+00 -4.56893043e+00 -1.82872776e+00  3.69024370e+00 -4.56893043e+00
 -1.82872776e+00  3.69024370e+00 -7.55520922e-01 -2.40596765e+00  5.08470891e+00
 -7.55520922e-01 -2.40596765e+00  5.08470891e+00 -1.72263042e+00 -4.60371336e+00
  2.77115382e+00 -1.72263042e+00 -4.60371336e+00  2.77115382e+00 -5.90775033e+00
 -3.51481223e+00  5.44817741e+00 -5.90775033e+00 -3.51481223e+00  5.44817741e+00
 -5.90775033e+00 -3.51481223e+00  5.44817741e+00 -5.90775033e+00 -3.51481223e+00
  5.44817741e+00 -5.90775033e+00 -3.51481223e+00  5.44817741e+00 -5.90775033e+00
 -3.51481223e+00  5.44817741e+00 -5.90775033e+00 -3.51481223e+00  5.44817741e+00
 -5.90775033e+00 -3.51481223e+00  5.44817741e+00  1.28071970e+00  8.70574463e-01
  1.82529500e+00  1.28071970e+00  8.70574463e-01  1.82529500e+00  1.28071970e+00
  8.70574463e-01  1.82529500e+00  1.28071970e+00  8.70574463e-01  1.82529500e+00
  1.28071970e+00  8.70574463e-01  1.82529500e+00  1.28071970e+00  8.70574463e-01
  1.82529500e+00  1.28071970e+00  8.70574463e-01  1.82529500e+00  1.28071970e+00
  8.70574463e-01  1.82529500e+00  2.48330706e+00  2.20229832e+00 -1.21340566e-01
  2.48330706e+00  2.20229832e+00 -1.21340566e-01  2.48330706e+00  2.20229832e+00
 -1.21340566e-01  2.48330706e+00  2.20229832e+00 -1.21340566e-01  2.48330706e+00
  2.20229832e+00 -1.21340566e-01  2.48330706e+00  2.20229832e+00 -1.21340566e-01
  2.48330706e+00  2.20229832e+00 -1.21340566e-01  2.48330706e+00  2.20229832e+00
 -1.21340566e-01  2.07648512e+00  1.62721927e+00 -2.66981652e+00  2.07648512e+00
  1.62721927e+00 -2.66981652e+00  2.07648512e+00  1.62721927e+00 -2.66981652e+00
  2.07648512e+00  1.62721927e+00 -2.66981652e+00  2.07648512e+00  1.62721927e+00
 -2.66981652e+00  2.07648512e+00  1.62721927e+00 -2.66981652e+00  2.07648512e+00
  1.62721927e+00 -2.66981652e+00  2.07648512e+00  1.62721927e+00 -2.66981652e+00
  4.05016943e-01 -3.57057502e-01 -3.24639955e+00  4.05016943e-01 -3.57057502e-01
 -3.24639955e+00  4.05016943e-01 -3.57057502e-01 -3.24639955e+00  4.05016943e-01
 -3.57057502e-01 -3.24639955e+00  4.05016943e-01 -3.57057502e-01 -3.24639955e+00
  4.05016943e-01 -3.57057502e-01 -3.24639955e+00  4.05016943e-01 -3.57057502e-01
 -3.24639955e+00  4.05016943e-01 -3.57057502e-01 -3.24639955e+00 -7.93541694e-01
 -1.69010627e+00 -1.30513901e+00 -7.93541694e-01 -1.69010627e+00 -1.30513901e+00
 -7.93541694e-01 -1.69010627e+00 -1.30513901e+00 -7.93541694e-01 -1.69010627e+00
 -1.30513901e+00 -7.93541694e-01 -1.69010627e+00 -1.30513901e+00 -7.93541694e-01
 -1.69010627e+00 -1.30513901e+00 -7.93541694e-01 -1.69010627e+00 -1.30513901e+00
 -7.93541694e-01 -1.69010627e+00 -1.30513901e+00 -2.06882973e+00 -3.23462545e+00
 -1.74858015e+00 -2.06882973e+00 -3.23462545e+00 -1.74858015e+00 -4.86399537e+00
  8.95309390e-01  4.61323162e+00 -4.86399537e+00  8.95309390e-01  4.61323162e+00
 -4.86399537e+00  8.95309390e-01  4.61323162e+00 -4.86399537e+00  8.95309390e-01
  4.61323162e+00 -4.86399537e+00  8.95309390e-01  4.61323162e+00 -4.86399537e+00
  8.95309390e-01  4.61323162e+00 -4.86399537e+00  8.95309390e-01  4.61323162e+00
 -4.86399537e+00  8.95309390e-01  4.61323162e+00 -5.54229297e+00 -2.00188788e+00
  1.86317163e+00 -5.54229297e+00 -2.00188788e+00  1.86317163e+00 -3.94092812e+00
  1.15108531e+00  6.45441700e+00 -3.94092812e+00  1.15108531e+00  6.45441700e+00
 -6.86964707e+00  1.36048026e+00  4.82021210e+00 -6.86964707e+00  1.36048026e+00
  4.82021210e+00 -4.00030467e+00  2.23143006e+00  3.29128615e+00 -4.00030467e+00
  2.23143006e+00  3.29128615e+00 -5.14226376e+00 -3.38593244e+00  7.21328253e+00
 -5.14226376e+00 -3.38593244e+00  7.21328253e+00 -5.73875244e+00 -5.35485598e+00
  4.90355182e+00 -5.73875244e+00 -5.35485598e+00  4.90355182e+00  6.39978179e-02
 -8.61785433e-01 -5.77551981e+00  6.39978179e-02 -8.61785433e-01 -5.77551981e+00
  6.39978179e-02 -8.61785433e-01 -5.77551981e+00  6.39978179e-02 -8.61785433e-01
 -5.77551981e+00  6.39978179e-02 -8.61785433e-01 -5.77551981e+00  6.39978179e-02
 -8.61785433e-01 -5.77551981e+00  6.39978179e-02 -8.61785433e-01 -5.77551981e+00
  6.39978179e-02 -8.61785433e-01 -5.77551981e+00 -1.65031423e+00 -2.79803704e+00
 -6.47989109e+00 -1.65031423e+00 -2.79803704e+00 -6.47989109e+00 -1.65031423e+00
 -2.79803704e+00 -6.47989109e+00 -1.65031423e+00 -2.79803704e+00 -6.47989109e+00
 -1.65031423e+00 -2.79803704e+00 -6.47989109e+00 -1.65031423e+00 -2.79803704e+00
 -6.47989109e+00 -1.65031423e+00 -2.79803704e+00 -6.47989109e+00 -1.65031423e+00
 -2.79803704e+00 -6.47989109e+00 -1.64138814e+00 -2.83426873e+00 -8.54287649e+00
 -1.64138814e+00 -2.83426873e+00 -8.54287649e+00 -3.57209632e+00 -2.39285315e+00
 -5.80774692e+00 -3.57209632e+00 -2.39285315e+00 -5.80774692e+00 -1.04532995e+00
 -4.64877834e+00 -5.75936797e+00 -1.04532995e+00 -4.64877834e+00 -5.75936797e+00
  3.43619573e+00  3.06805055e+00 -4.73248912e+00  3.43619573e+00  3.06805055e+00
 -4.73248912e+00  3.43619573e+00  3.06805055e+00 -4.73248912e+00  3.43619573e+00
  3.06805055e+00 -4.73248912e+00  3.43619573e+00  3.06805055e+00 -4.73248912e+00
  3.43619573e+00  3.06805055e+00 -4.73248912e+00  3.43619573e+00  3.06805055e+00
 -4.73248912e+00  3.43619573e+00  3.06805055e+00 -4.73248912e+00  5.76003282e+00
  1.66382121e+00 -5.78440373e+00  5.76003282e+00  1.66382121e+00 -5.78440373e+00
  5.76003282e+00  1.66382121e+00 -5.78440373e+00  5.76003282e+00  1.66382121e+00
 -5.78440373e+00  5.76003282e+00  1.66382121e+00 -5.78440373e+00  5.76003282e+00
  1.66382121e+00 -5.78440373e+00  5.76003282e+00  1.66382121e+00 -5.78440373e+00
  5.76003282e+00  1.66382121e+00 -5.78440373e+00  4.03378946e+00  4.90650201e+00