Generated by Psi4
     FORCE                           RHF                       TESTBAS
Number of atoms                            I               31
Charge                                     I                0
Multiplicity                               I                1
Number of electrons                        I              122
Number of alpha electrons                  I               61
Number of beta electrons                   I               61
Number of basis functions                  I              321
Number of independent functions            I              321
Atomic numbers                             I   N=          31
           6           6           6           1           1           7
           6           6           6           6           6           1
           1           1           8           6           1           1
           1           1           8           6           1           1
           1          17           6           1           1           1
           1
Nuclear charges                            R   N=          31
  6.00000000e+00  6.00000000e+00  6.00000000e+00  1.00000000e+00  1.00000000e+00
  7.00000000e+00  6.00000000e+00  6.00000000e+00  6.00000000e+00  6.00000000e+00
  6.00000000e+00  1.00000000e+00  1.00000000e+00  1.00000000e+00  8.00000000e+00
  6.00000000e+00  1.00000000e+00  1.00000000e+00  1.00000000e+00  1.00000000e+00
  8.00000000e+00  6.00000000e+00  1.00000000e+00  1.00000000e+00  1.00000000e+00
  1.70000000e+01  6.00000000e+00  1.00000000e+00  1.00000000e+00  1.00000000e+00
  1.00000000e+00
Current cartesian coordinates              R   N=          93
 -3.54843576e-01 -1.23576911e+00  1.39676933e+00 -1.72574099e+00 -2.60869087e+00
  3.49821570e+00 -4.53845313e+00 -1.81967278e+00  3.86266954e+00 -7.26316244e-01
 -2.33583657e+00  5.29050548e+00 -1.69478928e+00 -4.64498549e+00  3.08906237e+00
 -5.88055549e+00 -3.40642777e+00  5.70492012e+00  1.32600162e+00  7.67389888e-01
  1.88562571e+00  2.54333846e+00  2.00110886e+00 -1.12646726e-01  2.09248470e+00
  1.26146444e+00 -2.59995644e+00  4.33607015e-01 -7.28813231e-01 -3.15262939e+00
 -7.54995574e-01 -1.94285716e+00 -1.12193942e+00 -2.03076059e+00 -3.50617933e+00
 -1.48971703e+00 -5.12235577e+00 -3.18545376e+00  7.46367242e+00 -5.72337518e+00
 -5.27372353e+00  5.25971804e+00  1.04148249e-01 -1.34748831e+00 -5.63260191e+00
 -1.56228678e+00 -3.36129886e+00 -6.24365603e+00 -1.52539757e+00 -3.50472245e+00
 -8.30050365e+00 -3.49835734e+00 -2.95907635e+00 -5.61469310e+00 -9.20185209e-01
 -5.15273622e+00 -5.41604497e+00  3.84795006e+00  3.54189581e+00  2.19967665e-01
  1.68472552e+00  1.40266018e+00  4.37552508e+00  3.40995467e+00  3.37083588e+00
  4.96919912e+00  5.32766623e+00  2.91845278e+00  4.31790917e+00  3.40309664e+00
  3.51948671e+00  7.02653885e+00  2.80836946e+00  5.17924588e+00  4.14817489e+00
  3.64660374e+00  2.84866806e+00 -5.05758199e+00 -4.82841993e+00  9.50280346e-01
  4.63916049e+00 -5.50956346e+00 -2.08783593e+00  2.04587281e+00 -3.90423371e+00
  1.30306606e+00  6.46339822e+00 -6.83318763e+00  1.42727878e+00  4.82248897e+00
 -3.96691079e+00  2.21490626e+00  3.24727488e+00
Integer atomic weights                     I   N=          31
          12          12          12           1           1          14
          12          12          12          12          12           1
           1           1          15          12           1           1
           1           1          15          12           1           1
           1          34          12           1           1           1
           1
Real atomic weights                        R   N=          31
  1.20000000e+01  1.20000000e+01  1.20000000e+01  1.00782503e+00  1.00782503e+00
  1.40030740e+01  1.20000000e+01  1.20000000e+01  1.20000000e+01  1.20000000e+01
  1.20000000e+01  1.00782503e+00  1.00782503e+00  1.00782503e+00  1.59949146e+01
  1.20000000e+01  1.00782503e+00  1.00782503e+00  1.00782503e+00  1.00782503e+00
  1.59949146e+01  1.20000000e+01  1.00782503e+00  1.00782503e+00  1.00782503e+00
  3.49688527e+01  1.20000000e+01  1.00782503e+00  1.00782503e+00  1.00782503e+00
  1.00782503e+00
Number of primitive shells                 I              331
Number of contracted shells                I              154
Pure/Cartesian d shells                    I                1
Pure/Cartesian f shells                    I                1
Highest angular momentum                   I                2
Largest degree of contraction              I                6
Shell types                                I   N=         154
           0           0           1           0           1           2
           0           1           0           0           1           0
           1           2           0           1           0           0
           1           0           1           2           0           1
           0           0           0           0           0           0
           1           0           1           2           0           1
           0           0           1           0           1           2
           0           1           0           0           1           0
           1           2           0           1           0           0
           1           0           1           2           0           1
           0           0           1           0           1           2
           0           1           0           0           1           0
           1           2           0           1           0           0
           0           0           0           0           0           0
           1           0           1           2           0           1
           0           0           1           0           1           2
           0           1           0           0           0           0
           0           0           0           0           0           0
           1           0           1           2           0           1
           0           0           1           0           1           2
           0           1           0           0           0           0
           0           0           0           0           1           0
           1           0           1           2           0           1
           0           0           1           0           1           2
           0           1           0           0           0           0
           0           0           0           0
Number of primitives per shell             I   N=         154
           6           3           3           1           1           1
           1           1           6           3           3           1
           1           1           1           1           6           3
           3           1           1           1           1           1
           3           1           3           1           6           3
           3           1           1           1           1           1
           6           3           3           1           1           1
           1           1           6           3           3           1
           1           1           1           1           6           3
           3           1           1           1           1           1
           6           3           3           1           1           1
           1           1           6           3           3           1
           1           1           1           1           3           1
           3           1           3           1           6           3
           3           1           1           1           1           1
           6           3           3           1           1           1
           1           1           3           1           3           1
           3           1           3           1           6           3
           3           1           1           1           1           1
           6           3           3           1           1           1
           1           1           3           1           3           1
           3           1           6           6           6           3
           3           1           1           1           1           1
           6           3           3           1           1           1
           1           1           3           1           3           1
           3           1           3           1
Shell to atom map                          I   N=         154
           1           1           1           1           1           1
           1           1           2           2           2           2
           2           2           2           2           3           3
           3           3           3           3           3           3
           4           4           5           5           6           6
           6           6           6           6           6           6
           7           7           7           7           7           7
           7           7           8           8           8           8
           8           8           8           8           9           9
           9           9           9           9           9           9
          10          10          10          10          10          10
          10          10          11          11          11          11
          11          11          11          11          12          12
          13          13          14          14          15          15
          15          15          15          15          15          15
          16          16          16          16          16          16
          16          16          17          17          18          18
          19          19          20          20          21          21
          21          21          21          21          21          21
          22          22          22          22          22          22
          22          22          23          23          24          24
          25          25          26          26          26          26
          26          26          26          26          26          26
          27          27          27          27          27          27
          27          27          28          28          29          29
          30          30          31          31
Primitive exponents                        R   N=         331
  3.04752490e+03  4.57369510e+02  1.03948690e+02  2.92101550e+01  9.28666300e+00
  3.16392700e+00  7.86827240e+00  1.88128850e+00  5.44249300e-01  7.86827240e+00
  1.88128850e+00  5.44249300e-01  1.68714400e-01  1.68714400e-01  8.00000000e-01
  4.38000000e-02  4.38000000e-02  3.04752490e+03  4.57369510e+02  1.03948690e+02
  2.92101550e+01  9.28666300e+00  3.16392700e+00  7.86827240e+00  1.88128850e+00
  5.44249300e-01  7.86827240e+00  1.88128850e+00  5.44249300e-01  1.68714400e-01
  1.68714400e-01  8.00000000e-01  4.38000000e-02  4.38000000e-02  3.04752490e+03
  4.57369510e+02  1.03948690e+02  2.92101550e+01  9.28666300e+00  3.16392700e+00
  7.86827240e+00  1.88128850e+00  5.44249300e-01  7.86827240e+00  1.88128850e+00
  5.44249300e-01  1.68714400e-01  1.68714400e-01  8.00000000e-01  4.38000000e-02
  4.38000000e-02  1.87311370e+01  2.82539370e+00  6.40121700e-01  1.61277800e-01
  1.87311370e+01  2.82539370e+00  6.40121700e-01  1.61277800e-01  4.17351100e+03
  6.27457900e+02  1.42902100e+02  4.02343300e+01  1.28202100e+01  4.39043700e+00
  1.16263580e+01  2.71628000e+00  7.72218000e-01  1.16263580e+01  2.71628000e+00
  7.72218000e-01  2.12031300e-01  2.12031300e-01  8.00000000e-01  6.39000000e-02
  6.39000000e-02  3.04752490e+03  4.57369510e+02  1.03948690e+02  2.92101550e+01
  9.28666300e+00  3.16392700e+00  7.86827240e+00  1.88128850e+00  5.44249300e-01
  7.86827240e+00  1.88128850e+00  5.44249300e-01  1.68714400e-01  1.68714400e-01
  8.00000000e-01  4.38000000e-02  4.38000000e-02  3.04752490e+03  4.57369510e+02
  1.03948690e+02  2.92101550e+01  9.28666300e+00  3.16392700e+00  7.86827240e+00
  1.88128850e+00  5.44249300e-01  7.86827240e+00  1.88128850e+00  5.44249300e-01
  1.68714400e-01  1.68714400e-01  8.00000000e-01  4.38000000e-02  4.38000000e-02
  3.04752490e+03  4.57369510e+02  1.03948690e+02  2.92101550e+01  9.28666300e+00
  3.16392700e+00  7.86827240e+00  1.88128850e+00  5.44249300e-01  7.86827240e+00
  1.88128850e+00  5.44249300e-01  1.68714400e-01  1.68714400e-01  8.00000000e-01
  4.38000000e-02  4.38000000e-02  3.04752490e+03  4.57369510e+02  1.03948690e+02
  2.92101550e+01  9.28666300e+00  3.16392700e+00  7.86827240e+00  1.88128850e+00
  5.44249300e-01  7.86827240e+00  1.88128850e+00  5.44249300e-01  1.68714400e-01
  1.68714400e-01  8.00000000e-01  4.38000000e-02  4.38000000e-02  3.04752490e+03
  4.57369510e+02  1.03948690e+02  2.92101550e+01  9.28666300e+00  3.16392700e+00
  7.86827240e+00  1.88128850e+00  5.44249300e-01  7.86827240e+00  1.88128850e+00
  5.44249300e-01  1.68714400e-01  1.68714400e-01  8.00000000e-01  4.38000000e-02
  4.38000000e-02  1.87311370e+01  2.82539370e+00  6.40121700e-01  1.61277800e-01
  1.87311370e+01  2.82539370e+00  6.40121700e-01  1.61277800e-01  1.87311370e+01
  2.82539370e+00  6.40121700e-01  1.61277800e-01  5.48467170e+03  8.25234950e+02
  1.88046960e+02  5.29645000e+01  1.68975700e+01  5.79963530e+00  1.55396160e+01
  3.59993360e+00  1.01376180e+00  1.55396160e+01  3.59993360e+00  1.01376180e+00
  2.70005800e-01  2.70005800e-01  8.00000000e-01  8.45000000e-02  8.45000000e-02
  3.04752490e+03  4.57369510e+02  1.03948690e+02  2.92101550e+01  9.28666300e+00
  3.16392700e+00  7.86827240e+00  1.88128850e+00  5.44249300e-01  7.86827240e+00
  1.88128850e+00  5.44249300e-01  1.68714400e-01  1.68714400e-01  8.00000000e-01
  4.38000000e-02  4.38000000e-02  1.87311370e+01  2.82539370e+00  6.40121700e-01
  1.61277800e-01  1.87311370e+01  2.82539370e+00  6.40121700e-01  1.61277800e-01
  1.87311370e+01  2.82539370e+00  6.40121700e-01  1.61277800e-01  1.87311370e+01
  2.82539370e+00  6.40121700e-01  1.61277800e-01  5.48467170e+03  8.25234950e+02
  1.88046960e+02  5.29645000e+01  1.68975700e+01  5.79963530e+00  1.55396160e+01
  3.59993360e+00  1.01376180e+00  1.55396160e+01  3.59993360e+00  1.01376180e+00
  2.70005800e-01  2.70005800e-01  8.00000000e-01  8.45000000e-02  8.45000000e-02
  3.04752490e+03  4.57369510e+02  1.03948690e+02  2.92101550e+01  9.28666300e+00
  3.16392700e+00  7.86827240e+00  1.88128850e+00  5.44249300e-01  7.86827240e+00
  1.88128850e+00  5.44249300e-01  1.68714400e-01  1.68714400e-01  8.00000000e-01
  4.38000000e-02  4.38000000e-02  1.87311370e+01  2.82539370e+00  6.40121700e-01
  1.61277800e-01  1.87311370e+01  2.82539370e+00  6.40121700e-01  1.61277800e-01
  1.87311370e+01  2.82539370e+00  6.40121700e-01  1.61277800e-01  2.51801000e+04
  3.78035000e+03  8.60474000e+02  2.42145000e+02  7.73349000e+01  2.62470000e+01
  4.91765000e+02  1.16984000e+02  3.74153000e+01  1.37834000e+01  5.45215000e+00
  2.22588000e+00  4.91765000e+02  1.16984000e+02  3.74153000e+01  1.37834000e+01
  5.45215000e+00  2.22588000e+00  3.18649000e+00  1.14427000e+00  4.20377000e-01
  3.18649000e+00  1.14427000e+00  4.20377000e-01  1.42657000e-01  1.42657000e-01
  7.50000000e-01  4.83000000e-02  4.83000000e-02  3.04752490e+03  4.57369510e+02
  1.03948690e+02  2.92101550e+01  9.28666300e+00  3.16392700e+00  7.86827240e+00
  1.88128850e+00  5.44249300e-01  7.86827240e+00  1.88128850e+00  5.44249300e-01
  1.68714400e-01  1.68714400e-01  8.00000000e-01  4.38000000e-02  4.38000000e-02
  1.87311370e+01  2.82539370e+00  6.40121700e-01  1.61277800e-01  1.87311370e+01
  2.82539370e+00  6.40121700e-01  1.61277800e-01  1.87311370e+01  2.82539370e+00
  6.40121700e-01  1.61277800e-01  1.87311370e+01  2.82539370e+00  6.40121700e-01
  1.61277800e-01
Contraction coefficients                   R   N=         331
  1.83470016e-03  1.40373012e-02  6.88426061e-02  2.32184421e-01  4.67941342e-01
  3.62312032e-01 -1.19332409e-01 -1.60854212e-01  1.14345648e+00  6.89990956e-02
  3.16423980e-01  7.44308252e-01  1.00000000e+00  1.00000000e+00  1.00000000e+00
  1.00000000e+00  1.00000000e+00  1.83470016e-03  1.40373012e-02  6.88426061e-02
  2.32184421e-01  4.67941342e-01  3.62312032e-01 -1.19332409e-01 -1.60854212e-01
  1.14345648e+00  6.89990956e-02  3.16423980e-01  7.44308252e-01  1.00000000e+00
  1.00000000e+00  1.00000000e+00  1.00000000e+00  1.00000000e+00  1.83470016e-03
  1.40373012e-02  6.88426061e-02  2.32184421e-01  4.67941342e-01  3.62312032e-01
 -1.19332409e-01 -1.60854212e-01  1.14345648e+00  6.89990956e-02  3.16423980e-01
  7.44308252e-01  1.00000000e+00  1.00000000e+00  1.00000000e+00  1.00000000e+00
  1.00000000e+00  3.34945995e-02  2.34726947e-01  8.13757318e-01  1.00000000e+00
  3.34945995e-02  2.34726947e-01  8.13757318e-01  1.00000000e+00  1.83479944e-03
  1.39949958e-02  6.85869792e-02  2.32240930e-01  4.69069858e-01  3.60454891e-01
 -1.14961023e-01 -1.69118034e-01  1.14585223e+00  6.75800232e-02  3.23907111e-01
  7.40895255e-01  1.00000000e+00  1.00000000e+00  1.00000000e+00  1.00000000e+00
  1.00000000e+00  1.83470016e-03  1.40373012e-02  6.88426061e-02  2.32184421e-01
  4.67941342e-01  3.62312032e-01 -1.19332409e-01 -1.60854212e-01  1.14345648e+00
  6.89990956e-02  3.16423980e-01  7.44308252e-01  1.00000000e+00  1.00000000e+00
  1.00000000e+00  1.00000000e+00  1.00000000e+00  1.83470016e-03  1.40373012e-02
  6.88426061e-02  2.32184421e-01  4.67941342e-01  3.62312032e-01 -1.19332409e-01
 -1.60854212e-01  1.14345648e+00  6.89990956e-02  3.16423980e-01  7.44308252e-01
  1.00000000e+00  1.00000000e+00  1.00000000e+00  1.00000000e+00  1.00000000e+00
  1.83470016e-03  1.40373012e-02  6.88426061e-02  2.32184421e-01  4.67941342e-01
  3.62312032e-01 -1.19332409e-01 -1.60854212e-01  1.14345648e+00  6.89990956e-02
  3.16423980e-01  7.44308252e-01  1.00000000e+00  1.00000000e+00  1.00000000e+00
  1.00000000e+00  1.00000000e+00  1.83470016e-03  1.40373012e-02  6.88426061e-02
  2.32184421e-01  4.67941342e-01  3.62312032e-01 -1.19332409e-01 -1.60854212e-01
  1.14345648e+00  6.89990956e-02  3.16423980e-01  7.44308252e-01  1.00000000e+00
  1.00000000e+00  1.00000000e+00  1.00000000e+00  1.00000000e+00  1.83470016e-03
  1.40373012e-02  6.88426061e-02  2.32184421e-01  4.67941342e-01  3.62312032e-01
 -1.19332409e-01 -1.60854212e-01  1.14345648e+00  6.89990956e-02  3.16423980e-01
  7.44308252e-01  1.00000000e+00  1.00000000e+00  1.00000000e+00  1.00000000e+00
  1.00000000e+00  3.34945995e-02  2.34726947e-01  8.13757318e-01  1.00000000e+00
  3.34945995e-02  2.34726947e-01  8.13757318e-01  1.00000000e+00  3.34945995e-02
  2.34726947e-01  8.13757318e-01  1.00000000e+00  1.83109981e-03  1.39500985e-02
  6.84450927e-02  2.32714275e-01  4.70192950e-01  3.58520862e-01 -1.10777504e-01
 -1.48026305e-01  1.13076704e+00  7.08742995e-02  3.39752798e-01  7.27158595e-01
  1.00000000e+00  1.00000000e+00  1.00000000e+00  1.00000000e+00  1.00000000e+00
  1.83470016e-03  1.40373012e-02  6.88426061e-02  2.32184421e-01  4.67941342e-01
  3.62312032e-01 -1.19332409e-01 -1.60854212e-01  1.14345648e+00  6.89990956e-02
  3.16423980e-01  7.44308252e-01  1.00000000e+00  1.00000000e+00  1.00000000e+00
  1.00000000e+00  1.00000000e+00  3.34945995e-02  2.34726947e-01  8.13757318e-01
  1.00000000e+00  3.34945995e-02  2.34726947e-01  8.13757318e-01  1.00000000e+00
  3.34945995e-02  2.34726947e-01  8.13757318e-01  1.00000000e+00  3.34945995e-02
  2.34726947e-01  8.13757318e-01  1.00000000e+00  1.83109981e-03  1.39500985e-02
  6.84450927e-02  2.32714275e-01  4.70192950e-01  3.58520862e-01 -1.10777504e-01
 -1.48026305e-01  1.13076704e+00  7.08742995e-02  3.39752798e-01  7.27158595e-01
  1.00000000e+00  1.00000000e+00  1.00000000e+00  1.00000000e+00  1.00000000e+00
  1.83470016e-03  1.40373012e-02  6.88426061e-02  2.32184421e-01  4.67941342e-01
  3.62312032e-01 -1.19332409e-01 -1.60854212e-01  1.14345648e+00  6.89990956e-02
  3.16423980e-01  7.44308252e-01  1.00000000e+00  1.00000000e+00  1.00000000e+00
  1.00000000e+00  1.00000000e+00  3.34945995e-02  2.34726947e-01  8.13757318e-01
  1.00000000e+00  3.34945995e-02  2.34726947e-01  8.13757318e-01  1.00000000e+00
  3.34945995e-02  2.34726947e-01  8.13757318e-01  1.00000000e+00  1.83300031e-03
  1.40340024e-02  6.90970118e-02  2.37452040e-01  4.83034082e-01  3.39856058e-01
 -2.29740199e-03 -3.07140266e-02 -1.12528097e-01  4.50160390e-02  5.89353510e-01
  4.65206403e-01  3.98940055e-03  3.03180042e-02  1.29880018e-01  3.27951045e-01
  4.53527062e-01  2.52154035e-01 -2.51831288e-01  6.15893150e-02  1.06018542e+00
 -1.42990127e-02  3.23572288e-01  7.43507661e-01  1.00000000e+00  1.00000000e+00
  1.00000000e+00  1.00000000e+00  1.00000000e+00  1.83470016e-03  1.40373012e-02
  6.88426061e-02  2.32184421e-01  4.67941342e-01  3.62312032e-01 -1.19332409e-01
 -1.60854212e-01  1.14345648e+00  6.89990956e-02  3.16423980e-01  7.44308252e-01
  1.00000000e+00  1.00000000e+00  1.00000000e+00  1.00000000e+00  1.00000000e+00
  3.34945995e-02  2.34726947e-01  8.13757318e-01  1.00000000e+00  3.34945995e-02
  2.34726947e-01  8.13757318e-01  1.00000000e+00  3.34945995e-02  2.34726947e-01
  8.13757318e-01  1.00000000e+00  3.34945995e-02  2.34726947e-01  8.13757318e-01
  1.00000000e+00
Coordinates of each shell                  R   N=         462
 -3.54843576e-01 -1.23576911e+00  1.39676933e+00 -3.54843576e-01 -1.23576911e+00
  1.39676933e+00 -3.54843576e-01 -1.23576911e+00  1.39676933e+00 -3.54843576e-01
 -1.23576911e+00  1.39676933e+00 -3.54843576e-01 -1.23576911e+00  1.39676933e+00
 -3.54843576e-01 -1.23576911e+00  1.39676933e+00 -3.54843576e-01 -1.23576911e+00
  1.39676933e+00 -3.54843576e-01 -1.23576911e+00  1.39676933e+00 -1.72574099e+00
 -2.60869087e+00  3.49821570e+00 -1.72574099e+00 -2.60869087e+00  3.49821570e+00
 -1.72574099e+00 -2.60869087e+00  3.49821570e+00 -1.72574099e+00 -2.60869087e+00
  3.49821570e+00 -1.72574099e+00 -2.60869087e+00  3.49821570e+00 -1.72574099e+00
 -2.60869087e+00  3.49821570e+00 -1.72574099e+00 -2.60869087e+00  3.49821570e+00
 -1.72574099e+00 -2.60869087e+00  3.49821570e+00 -4.53845313e+00 -1.81967278e+00
  3.86266954e+00 -4.53845313e+00 -1.81967278e+00  3.86266954e+00 -4.53845313e+00
 -1.81967278e+00  3.86266954e+00 -4.53845313e+00 -1.81967278e+00  3.86266954e+00
 -4.53845313e+00 -1.81967278e+00  3.86266954e+00 -4.53845313e+00 -1.81967278e+00
  3.86266954e+00 -4.53845313e+00 -1.81967278e+00  3.86266954e+00 -4.53845313e+00
 -1.81967278e+00  3.86266954e+00 -7.26316244e-01 -2.33583657e+00  5.29050548e+00
 -7.26316244e-01 -2.33583657e+00  5.29050548e+00 -1.69478928e+00 -4.64498549e+00
  3.08906237e+00 -1.69478928e+00 -4.64498549e+00  3.08906237e+00 -5.88055549e+00
 -3.40642777e+00  5.70492012e+00 -5.88055549e+00 -3.40642777e+00  5.70492012e+00
 -5.88055549e+00 -3.40642777e+00  5.70492012e+00 -5.88055549e+00 -3.40642777e+00
  5.70492012e+00 -5.88055549e+00 -3.40642777e+00  5.70492012e+00 -5.88055549e+00
 -3.40642777e+00  5.70492012e+00 -5.88055549e+00 -3.40642777e+00  5.70492012e+00
 -5.88055549e+00 -3.40642777e+00  5.70492012e+00  1.32600162e+00  7.67389888e-01
  1.88562571e+00  1.32600162e+00  7.67389888e-01  1.88562571e+00  1.32600162e+00
  7.67389888e-01  1.88562571e+00  1.32600162e+00  7.67389888e-01  1.88562571e+00
  1.32600162e+00  7.67389888e-01  1.88562571e+00  1.32600162e+00  7.67389888e-01
  1.88562571e+00  1.32600162e+00  7.67389888e-01  1.88562571e+00  1.32600162e+00
  7.67389888e-01  1.88562571e+00  2.54333846e+00  2.00110886e+00 -1.12646726e-01
  2.54333846e+00  2.00110886e+00 -1.12646726e-01  2.54333846e+00  2.00110886e+00
 -1.12646726e-01  2.54333846e+00  2.00110886e+00 -1.12646726e-01  2.54333846e+00
  2.00110886e+00 -1.12646726e-01  2.54333846e+00  2.00110886e+00 -1.12646726e-01
  2.54333846e+00  2.00110886e+00 -1.12646726e-01  2.54333846e+00  2.00110886e+00
 -1.12646726e-01  2.09248470e+00  1.26146444e+00 -2.59995644e+00  2.09248470e+00
  1.26146444e+00 -2.59995644e+00  2.09248470e+00  1.26146444e+00 -2.59995644e+00
  2.09248470e+00  1.26146444e+00 -2.59995644e+00  2.09248470e+00  1.26146444e+00
 -2.59995644e+00  2.09248470e+00  1.26146444e+00 -2.59995644e+00  2.09248470e+00
  1.26146444e+00 -2.59995644e+00  2.09248470e+00  1.26146444e+00 -2.59995644e+00
  4.33607015e-01 -7.28813231e-01 -3.15262939e+00  4.33607015e-01 -7.28813231e-01
 -3.15262939e+00  4.33607015e-01 -7.28813231e-01 -3.15262939e+00  4.33607015e-01
 -7.28813231e-01 -3.15262939e+00  4.33607015e-01 -7.28813231e-01 -3.15262939e+00
  4.33607015e-01 -7.28813231e-01 -3.15262939e+00  4.33607015e-01 -7.28813231e-01
 -3.15262939e+00  4.33607015e-01 -7.28813231e-01 -3.15262939e+00 -7.54995574e-01
 -1.94285716e+00 -1.12193942e+00 -7.54995574e-01 -1.94285716e+00 -1.12193942e+00
 -7.54995574e-01 -1.94285716e+00 -1.12193942e+00 -7.54995574e-01 -1.94285716e+00
 -1.12193942e+00 -7.54995574e-01 -1.94285716e+00 -1.12193942e+00 -7.54995574e-01
 -1.94285716e+00 -1.12193942e+00 -7.54995574e-01 -1.94285716e+00 -1.12193942e+00
 -7.54995574e-01 -1.94285716e+00 -1.12193942e+00 -2.03076059e+00 -3.50617933e+00
 -1.48971703e+00 -2.03076059e+00 -3.50617933e+00 -1.48971703e+00 -5.12235577e+00
 -3.18545376e+00  7.46367242e+00 -5.12235577e+00 -3.18545376e+00  7.46367242e+00
 -5.72337518e+00 -5.27372353e+00  5.25971804e+00 -5.72337518e+00 -5.27372353e+00
  5.25971804e+00  1.04148249e-01 -1.34748831e+00 -5.63260191e+00  1.04148249e-01
 -1.34748831e+00 -5.63260191e+00  1.04148249e-01 -1.34748831e+00 -5.63260191e+00
  1.04148249e-01 -1.34748831e+00 -5.63260191e+00  1.04148249e-01 -1.34748831e+00
 -5.63260191e+00  1.04148249e-01 -1.34748831e+00 -5.63260191e+00  1.04148249e-01
 -1.34748831e+00 -5.63260191e+00  1.04148249e-01 -1.34748831e+00 -5.63260191e+00
 -1.56228678e+00 -3.36129886e+00 -6.24365603e+00 -1.56228678e+00 -3.36129886e+00
 -6.24365603e+00 -1.56228678e+00 -3.36129886e+00 -6.24365603e+00 -1.56228678e+00
 -3.36129886e+00 -6.24365603e+00 -1.56228678e+00 -3.36129886e+00 -6.24365603e+00
 -1.56228678e+00 -3.36129886e+00 -6.24365603e+00 -1.56228678e+00 -3.36129886e+00
 -6.24365603e+00 -1.56228678e+00 -3.36129886e+00 -6.24365603e+00 -1.52539757e+00
 -3.50472245e+00 -8.30050365e+00 -1.52539757e+00 -3.50472245e+00 -8.30050365e+00
 -3.49835734e+00 -2.95907635e+00 -5.61469310e+00 -3.49835734e+00 -2.95907635e+00
 -5.61469310e+00 -9.20185209e-01 -5.15273622e+00 -5.41604497e+00 -9.20185209e-01
 -5.15273622e+00 -5.41604497e+00  3.84795006e+00  3.54189581e+00  2.19967665e-01
  3.84795006e+00  3.54189581e+00  2.19967665e-01  1.68472552e+00  1.40266018e+00
  4.37552508e+00  1.68472552e+00  1.40266018e+00  4.37552508e+00  1.68472552e+00
  1.40266018e+00  4.37552508e+00  1.68472552e+00  1.40266018e+00  4.37552508e+00
  1.68472552e+00  1.40266018e+00  4.37552508e+00  1.68472552e+00  1.40266018e+00
  4.37552508e+00  1.68472552e+00  1.40266018e+00  4.37552508e+00  1.68472552e+00
  1.40266018e+00  4.37552508e+00  3.40995467e+00  3.37083588e+00  4.96919912e+00
  3.40995467e+00  3.37083588e+00  4.96919912e+00  3.40995467e+00  3.37083588e+00
  4.96919912e+00  3.40995467e+00  3.37083588e+00  4.96919912e+00  3.40995467e+00
  3.37083588e+00  4.96919912e+00  3.40995467e+00  3.37083588e+00  4.96919912e+00
  3.40995467e+00  3.37083588e+00  4.96919912e+00  3.40995467e+00  3.37083588e+00
  4.96919912e+00  5.32766623e+00  2.91845278e+00  4.31790917e+00  5.32766623e+00
  2.91845278e+00  4.31790917e+00  3.40309664e+00  3.51948671e+00  7.02653885e+00
  3.40309664e+00  3.51948671e+00  7.02653885e+00  2.80836946e+00  5.17924588e+00
  4.14817489e+00  2.80836946e+00  5.17924588e+00  4.14817489e+00  3.64660374e+00
  2.84866806e+00 -5.05758199e+00  3.64660374e+00  2.84866806e+00 -5.05758199e+00
  3.64660374e+00  2.84866806e+00 -5.05758199e+00  3.64660374e+00  2.84866806e+00
 -5.05758199e+00  3.64660374e+00  2.84866806e+00 -5.05758199e+00  3.64660374e+00
  2.84866806e+00 -5.05758199e+00  3.64660374e+00  2.84866806e+00 -5.05758199e+00
  3.64660374e+00  2.84866806e+00 -5.05758199e+00  3.64660374e+00  2.84866806e+00
 -5.05758199e+00  3.64660374e+00  2.84866806e+00 -5.05758199e+00 -4.82841993e+00
  9.50280346e-01  4.63916049e+00 -4.82841993e+00  9.50280346e-01  4.63916049e+00
 -4.82841993e+00  9.50280346e-01  4.63916049e+00 -4.82841993e+00  9.50280346e-01
  4.63916049e+00 -4.82841993e+00  9.50280346e-01  4.63916049e+00 -4.82841993e+00
  9.50280346e-01  4.63916049e+00 -4.82841993e+00  9.50280346e-01  4.63916049e+00
 -4.82841993e+00  9.50280346e-01  4.63916049e+00 -5.50956346e+00 -2.08783593e+00
  2.04587281e+00 -5.50956346e+00 -2.08783593e+00  2.04587281e+00 -3.90423371e+00
  1.30306606e+00  6.46339822e+00 -3.90423371e+00  1.30306606e+00  6.46339822e+00
 -6.83318763e+00  1.42727878e+00  4.82248897e+00 -6.83318763e+00  1.42727878e+00
  4.82248897e+00 -3.96691079e+00  2.21490626e+00  3.24727488e+00 -3.96691079e+00
  2.21490626e+00  3.24727488e+00
Total Energy                               R     -1.094196742462915e+03
Alpha Orbital Energies                     R   N=         321
 -1.01550182e+02 -1.91927902e+01 -1.91923646e+01 -1.43230013e+01 -1.02621849e+01
 -1.02579000e+01 -1.02528293e+01 -1.02508324e+01 -1.02501832e+01 -1.02213756e+01
 -1.02077988e+01 -1.02068889e+01 -1.02038213e+01 -1.01914436e+01 -1.01732374e+01
 -9.46476593e+00 -7.22901004e+00 -7.21918312e+00 -7.21870733e+00 -1.07786618e+00
 -1.07507553e+00 -8.93359463e-01 -8.88132735e-01 -8.43111218e-01 -7.78544341e-01
 -7.67678681e-01 -7.34766173e-01 -7.31349316e-01 -6.99301273e-01 -6.70214930e-01
 -6.22200894e-01 -5.95754444e-01 -5.80221692e-01 -5.35896132e-01 -5.29212257e-01
 -5.20217430e-01 -4.96730320e-01 -4.82284481e-01 -4.77499242e-01 -4.65518116e-01
 -4.56920429e-01 -4.54155834e-01 -4.39133415e-01 -4.28940092e-01 -4.21180622e-01
 -4.15822264e-01 -4.04494069e-01 -3.91821066e-01 -3.81346427e-01 -3.69033388e-01
 -3.63315635e-01 -3.53528374e-01 -3.48939128e-01 -3.41527538e-01 -3.36607553e-01
 -3.31884161e-01 -3.08752812e-01 -2.97859242e-01 -2.56714001e-01 -2.40786326e-01
 -2.10737916e-01 -2.67076405e-02 -4.97749662e-03  1.89040815e-03  5.71127899e-03