Generated by Psi4
     FORCE                           RHF                       TESTBAS
Number of atoms                            I               32
Charge                                     I                0
Multiplicity                               I                1
Number of electrons                        I              118
Number of alpha electrons                  I               59
Number of beta electrons                   I               59
Number of basis functions                  I              336
Number of independent functions            I              336
Atomic numbers                             I   N=          32
           8           6           6           6           6           6
           6           1           1           1           1           7
           6           1           1           1           6           6
           6           6           6           6           1           1
           1           1           9           1           1           1
           1           1
Nuclear charges                            R   N=          32
  8.00000000e+00  6.00000000e+00  6.00000000e+00  6.00000000e+00  6.00000000e+00
  6.00000000e+00  6.00000000e+00  1.00000000e+00  1.00000000e+00  1.00000000e+00
  1.00000000e+00  7.00000000e+00  6.00000000e+00  1.00000000e+00  1.00000000e+00
  1.00000000e+00  6.00000000e+00  6.00000000e+00  6.00000000e+00  6.00000000e+00
  6.00000000e+00  6.00000000e+00  1.00000000e+00  1.00000000e+00  1.00000000e+00
  1.00000000e+00  9.00000000e+00  1.00000000e+00  1.00000000e+00  1.00000000e+00
  1.00000000e+00  1.00000000e+00
Current cartesian coordinates              R   N=          96
  2.99144066e+00 -3.03879517e+00 -3.29518835e+00 -4.78490599e-01 -3.73523415e-01
 -1.92775051e+00  2.36247379e+00 -9.98940968e-01 -2.43644491e+00  4.26123137e+00
  1.17274802e+00 -2.27066713e+00  3.14694153e+00  3.67421693e+00 -1.32694117e+00
  6.67721664e-01  4.37763253e+00 -2.70878673e+00 -8.80003512e-01  2.05120929e+00
 -3.56690490e+00  1.08937349e+00  5.53171204e+00 -4.37920757e+00 -4.81171814e-01
  5.56627066e+00 -1.46031717e+00 -2.90134782e+00  2.48000348e+00 -3.62627545e+00
 -3.60578775e-01  1.54006356e+00 -5.51257541e+00 -2.18644786e+00 -2.32891902e+00
 -2.91598313e+00 -2.32842209e+00 -4.72406342e+00 -1.51249032e+00 -3.25643004e+00
 -4.41295050e+00  3.09156446e-01 -4.89145057e-01 -5.62909965e+00 -1.19086960e+00
 -3.51836128e+00 -6.01914260e+00 -2.60309857e+00 -1.17509310e+00  1.18003699e-01
  8.47449986e-01 -3.56088339e+00  1.13249496e+00  1.42909763e+00 -4.34129849e+00
  1.53345323e+00  3.91408883e+00 -2.73839320e+00  9.09122095e-01  5.92059003e+00
 -3.69128618e-01 -1.25810395e-01  5.41632167e+00  3.40940155e-01 -5.03357905e-01
  2.91320799e+00 -4.84048075e+00  1.57082374e+00 -1.12669882e-01 -6.20117207e+00
  2.32085485e+00  4.28297803e+00 -3.32784768e+00  1.21405348e+00  7.86351161e+00
  9.29981115e-01 -6.55797498e-01  6.91276472e+00  2.66953595e+00 -1.53810682e+00
  2.50994912e+00 -1.63609079e+00 -2.72209707e+00 -4.71888850e+00  5.03870217e+00
  1.38160939e+00 -4.18657212e+00  5.83826688e+00  5.43531390e-01 -1.08428998e+00
  4.54366092e+00  5.18835161e+00 -1.55373412e+00  2.78682765e+00  3.53301606e+00
  7.05822814e-01
Integer atomic weights                     I   N=          32
          15          12          12          12          12          12
          12           1           1           1           1          14
          12           1           1           1          12          12
          12          12          12          12           1           1
           1           1          18           1           1           1
           1           1
Real atomic weights                        R   N=          32
  1.59949146e+01  1.20000000e+01  1.20000000e+01  1.20000000e+01  1.20000000e+01
  1.20000000e+01  1.20000000e+01  1.00782503e+00  1.00782503e+00  1.00782503e+00
  1.00782503e+00  1.40030740e+01  1.20000000e+01  1.00782503e+00  1.00782503e+00
  1.00782503e+00  1.20000000e+01  1.20000000e+01  1.20000000e+01  1.20000000e+01
  1.20000000e+01  1.20000000e+01  1.00782503e+00  1.00782503e+00  1.00782503e+00
  1.00782503e+00  1.89984032e+01  1.00782503e+00  1.00782503e+00  1.00782503e+00
  1.00782503e+00  1.00782503e+00
Number of primitive shells                 I              336
Number of contracted shells                I              160
Pure/Cartesian d shells                    I                1
Pure/Cartesian f shells                    I                1
Highest angular momentum                   I                2
Largest degree of contraction              I                6
Shell types                                I   N=         160
           0           0           1           0           1           2
           0           1           0           0           1           0
           1           2           0           1           0           0
           1           0           1           2           0           1
           0           0           1           0           1           2
           0           1           0           0           1           0
           1           2           0           1           0           0
           1           0           1           2           0           1
           0           0           1           0           1           2
           0           1           0           0           0           0
           0           0           0           0           0           0
           1           0           1           2           0           1
           0           0           1           0           1           2
           0           1           0           0           0           0
           0           0           0           0           1           0
           1           2           0           1           0           0
           1           0           1           2           0           1
           0           0           1           0           1           2
           0           1           0           0           1           0
           1           2           0           1           0           0
           1           0           1           2           0           1
           0           0           1           0           1           2
           0           1           0           0           0           0
           0           0           0           0           0           0
           1           0           1           2           0           1
           0           0           0           0           0           0
           0           0           0           0
Number of primitives per shell             I   N=         160
           6           3           3           1           1           1
           1           1           6           3           3           1
           1           1           1           1           6           3
           3           1           1           1           1           1
           6           3           3           1           1           1
           1           1           6           3           3           1
           1           1           1           1           6           3
           3           1           1           1           1           1
           6           3           3           1           1           1
           1           1           3           1           3           1
           3           1           3           1           6           3
           3           1           1           1           1           1
           6           3           3           1           1           1
           1           1           3           1           3           1
           3           1           6           3           3           1
           1           1           1           1           6           3
           3           1           1           1           1           1
           6           3           3           1           1           1
           1           1           6           3           3           1
           1           1           1           1           6           3
           3           1           1           1           1           1
           6           3           3           1           1           1
           1           1           3           1           3           1
           3           1           3           1           6           3
           3           1           1           1           1           1
           3           1           3           1           3           1
           3           1           3           1
Shell to atom map                          I   N=         160
           1           1           1           1           1           1
           1           1           2           2           2           2
           2           2           2           2           3           3
           3           3           3           3           3           3
           4           4           4           4           4           4
           4           4           5           5           5           5
           5           5           5           5           6           6
           6           6           6           6           6           6
           7           7           7           7           7           7
           7           7           8           8           9           9
          10          10          11          11          12          12
          12          12          12          12          12          12
          13          13          13          13          13          13
          13          13          14          14          15          15
          16          16          17          17          17          17
          17          17          17          17          18          18
          18          18          18          18          18          18
          19          19          19          19          19          19
          19          19          20          20          20          20
          20          20          20          20          21          21
          21          21          21          21          21          21
          22          22          22          22          22          22
          22          22          23          23          24          24
          25          25          26          26          27          27
          27          27          27          27          27          27
          28          28          29          29          30          30
          31          31          32          32
Primitive exponents                        R   N=         336
  5.48467170e+03  8.25234950e+02  1.88046960e+02  5.29645000e+01  1.68975700e+01
  5.79963530e+00  1.55396160e+01  3.59993360e+00  1.01376180e+00  1.55396160e+01
  3.59993360e+00  1.01376180e+00  2.70005800e-01  2.70005800e-01  8.00000000e-01
  8.45000000e-02  8.45000000e-02  3.04752490e+03  4.57369510e+02  1.03948690e+02
  2.92101550e+01  9.28666300e+00  3.16392700e+00  7.86827240e+00  1.88128850e+00
  5.44249300e-01  7.86827240e+00  1.88128850e+00  5.44249300e-01  1.68714400e-01
  1.68714400e-01  8.00000000e-01  4.38000000e-02  4.38000000e-02  3.04752490e+03
  4.57369510e+02  1.03948690e+02  2.92101550e+01  9.28666300e+00  3.16392700e+00
  7.86827240e+00  1.88128850e+00  5.44249300e-01  7.86827240e+00  1.88128850e+00
  5.44249300e-01  1.68714400e-01  1.68714400e-01  8.00000000e-01  4.38000000e-02
  4.38000000e-02  3.04752490e+03  4.57369510e+02  1.03948690e+02  2.92101550e+01
  9.28666300e+00  3.16392700e+00  7.86827240e+00  1.88128850e+00  5.44249300e-01
  7.86827240e+00  1.88128850e+00  5.44249300e-01  1.68714400e-01  1.68714400e-01
  8.00000000e-01  4.38000000e-02  4.38000000e-02  3.04752490e+03  4.57369510e+02
  1.03948690e+02  2.92101550e+01  9.28666300e+00  3.16392700e+00  7.86827240e+00
  1.88128850e+00  5.44249300e-01  7.86827240e+00  1.88128850e+00  5.44249300e-01
  1.68714400e-01  1.68714400e-01  8.00000000e-01  4.38000000e-02  4.38000000e-02
  3.04752490e+03  4.57369510e+02  1.03948690e+02  2.92101550e+01  9.28666300e+00
  3.16392700e+00  7.86827240e+00  1.88128850e+00  5.44249300e-01  7.86827240e+00
  1.88128850e+00  5.44249300e-01  1.68714400e-01  1.68714400e-01  8.00000000e-01
  4.38000000e-02  4.38000000e-02  3.04752490e+03  4.57369510e+02  1.03948690e+02
  2.92101550e+01  9.28666300e+00  3.16392700e+00  7.86827240e+00  1.88128850e+00
  5.44249300e-01  7.86827240e+00  1.88128850e+00  5.44249300e-01  1.68714400e-01
  1.68714400e-01  8.00000000e-01  4.38000000e-02  4.38000000e-02  1.87311370e+01
  2.82539370e+00  6.40121700e-01  1.61277800e-01  1.87311370e+01  2.82539370e+00
  6.40121700e-01  1.61277800e-01  1.87311370e+01  2.82539370e+00  6.40121700e-01
  1.61277800e-01  1.87311370e+01  2.82539370e+00  6.40121700e-01  1.61277800e-01
  4.17351100e+03  6.27457900e+02  1.42902100e+02  4.02343300e+01  1.28202100e+01
  4.39043700e+00  1.16263580e+01  2.71628000e+00  7.72218000e-01  1.16263580e+01
  2.71628000e+00  7.72218000e-01  2.12031300e-01  2.12031300e-01  8.00000000e-01
  6.39000000e-02  6.39000000e-02  3.04752490e+03  4.57369510e+02  1.03948690e+02
  2.92101550e+01  9.28666300e+00  3.16392700e+00  7.86827240e+00  1.88128850e+00
  5.44249300e-01  7.86827240e+00  1.88128850e+00  5.44249300e-01  1.68714400e-01
  1.68714400e-01  8.00000000e-01  4.38000000e-02  4.38000000e-02  1.87311370e+01
  2.82539370e+00  6.40121700e-01  1.61277800e-01  1.87311370e+01  2.82539370e+00
  6.40121700e-01  1.61277800e-01  1.87311370e+01  2.82539370e+00  6.40121700e-01
  1.61277800e-01  3.04752490e+03  4.57369510e+02  1.03948690e+02  2.92101550e+01
  9.28666300e+00  3.16392700e+00  7.86827240e+00  1.88128850e+00  5.44249300e-01
  7.86827240e+00  1.88128850e+00  5.44249300e-01  1.68714400e-01  1.68714400e-01
  8.00000000e-01  4.38000000e-02  4.38000000e-02  3.04752490e+03  4.57369510e+02
  1.03948690e+02  2.92101550e+01  9.28666300e+00  3.16392700e+00  7.86827240e+00
  1.88128850e+00  5.44249300e-01  7.86827240e+00  1.88128850e+00  5.44249300e-01
  1.68714400e-01  1.68714400e-01  8.00000000e-01  4.38000000e-02  4.38000000e-02
  3.04752490e+03  4.57369510e+02  1.03948690e+02  2.92101550e+01  9.28666300e+00
  3.16392700e+00  7.86827240e+00  1.88128850e+00  5.44249300e-01  7.86827240e+00
  1.88128850e+00  5.44249300e-01  1.68714400e-01  1.68714400e-01  8.00000000e-01
  4.38000000e-02  4.38000000e-02  3.04752490e+03  4.57369510e+02  1.03948690e+02
  2.92101550e+01  9.28666300e+00  3.16392700e+00  7.86827240e+00  1.88128850e+00
  5.44249300e-01  7.86827240e+00  1.88128850e+00  5.44249300e-01  1.68714400e-01
  1.68714400e-01  8.00000000e-01  4.38000000e-02  4.38000000e-02  3.04752490e+03
  4.57369510e+02  1.03948690e+02  2.92101550e+01  9.28666300e+00  3.16392700e+00
  7.86827240e+00  1.88128850e+00  5.44249300e-01  7.86827240e+00  1.88128850e+00
  5.44249300e-01  1.68714400e-01  1.68714400e-01  8.00000000e-01  4.38000000e-02
  4.38000000e-02  3.04752490e+03  4.57369510e+02  1.03948690e+02  2.92101550e+01
  9.28666300e+00  3.16392700e+00  7.86827240e+00  1.88128850e+00  5.44249300e-01
  7.86827240e+00  1.88128850e+00  5.44249300e-01  1.68714400e-01  1.68714400e-01
  8.00000000e-01  4.38000000e-02  4.38000000e-02  1.87311370e+01  2.82539370e+00
  6.40121700e-01  1.61277800e-01  1.87311370e+01  2.82539370e+00  6.40121700e-01
  1.61277800e-01  1.87311370e+01  2.82539370e+00  6.40121700e-01  1.61277800e-01
  1.87311370e+01  2.82539370e+00  6.40121700e-01  1.61277800e-01  7.00171309e+03
  1.05136609e+03  2.39285690e+02  6.73974453e+01  2.15199573e+01  7.40310130e+00
  2.08479528e+01  4.80830834e+00  1.34406986e+00  2.08479528e+01  4.80830834e+00
  1.34406986e+00  3.58151393e-01  3.58151393e-01  8.00000000e-01  1.07600000e-01
  1.07600000e-01  1.87311370e+01  2.82539370e+00  6.40121700e-01  1.61277800e-01
  1.87311370e+01  2.82539370e+00  6.40121700e-01  1.61277800e-01  1.87311370e+01
  2.82539370e+00  6.40121700e-01  1.61277800e-01  1.87311370e+01  2.82539370e+00
  6.40121700e-01  1.61277800e-01  1.87311370e+01  2.82539370e+00  6.40121700e-01
  1.61277800e-01
Contraction coefficients                   R   N=         336
  1.83109981e-03  1.39500985e-02  6.84450927e-02  2.32714275e-01  4.70192950e-01
  3.58520862e-01 -1.10777504e-01 -1.48026305e-01  1.13076704e+00  7.08742995e-02
  3.39752798e-01  7.27158595e-01  1.00000000e+00  1.00000000e+00  1.00000000e+00
  1.00000000e+00  1.00000000e+00  1.83470016e-03  1.40373012e-02  6.88426061e-02
  2.32184421e-01  4.67941342e-01  3.62312032e-01 -1.19332409e-01 -1.60854212e-01
  1.14345648e+00  6.89990956e-02  3.16423980e-01  7.44308252e-01  1.00000000e+00
  1.00000000e+00  1.00000000e+00  1.00000000e+00  1.00000000e+00  1.83470016e-03
  1.40373012e-02  6.88426061e-02  2.32184421e-01  4.67941342e-01  3.62312032e-01
 -1.19332409e-01 -1.60854212e-01  1.14345648e+00  6.89990956e-02  3.16423980e-01
  7.44308252e-01  1.00000000e+00  1.00000000e+00  1.00000000e+00  1.00000000e+00
  1.00000000e+00  1.83470016e-03  1.40373012e-02  6.88426061e-02  2.32184421e-01
  4.67941342e-01  3.62312032e-01 -1.19332409e-01 -1.60854212e-01  1.14345648e+00
  6.89990956e-02  3.16423980e-01  7.44308252e-01  1.00000000e+00  1.00000000e+00
  1.00000000e+00  1.00000000e+00  1.00000000e+00  1.83470016e-03  1.40373012e-02
  6.88426061e-02  2.32184421e-01  4.67941342e-01  3.62312032e-01 -1.19332409e-01
 -1.60854212e-01  1.14345648e+00  6.89990956e-02  3.16423980e-01  7.44308252e-01
  1.00000000e+00  1.00000000e+00  1.00000000e+00  1.00000000e+00  1.00000000e+00
  1.83470016e-03  1.40373012e-02  6.88426061e-02  2.32184421e-01  4.67941342e-01
  3.62312032e-01 -1.19332409e-01 -1.60854212e-01  1.14345648e+00  6.89990956e-02
  3.16423980e-01  7.44308252e-01  1.00000000e+00  1.00000000e+00  1.00000000e+00
  1.00000000e+00  1.00000000e+00  1.83470016e-03  1.40373012e-02  6.88426061e-02
  2.32184421e-01  4.67941342e-01  3.62312032e-01 -1.19332409e-01 -1.60854212e-01
  1.14345648e+00  6.89990956e-02  3.16423980e-01  7.44308252e-01  1.00000000e+00
  1.00000000e+00  1.00000000e+00  1.00000000e+00  1.00000000e+00  3.34945995e-02
  2.34726947e-01  8.13757318e-01  1.00000000e+00  3.34945995e-02  2.34726947e-01
  8.13757318e-01  1.00000000e+00  3.34945995e-02  2.34726947e-01  8.13757318e-01
  1.00000000e+00  3.34945995e-02  2.34726947e-01  8.13757318e-01  1.00000000e+00
  1.83479944e-03  1.39949958e-02  6.85869792e-02  2.32240930e-01  4.69069858e-01
  3.60454891e-01 -1.14961023e-01 -1.69118034e-01  1.14585223e+00  6.75800232e-02
  3.23907111e-01  7.40895255e-01  1.00000000e+00  1.00000000e+00  1.00000000e+00
  1.00000000e+00  1.00000000e+00  1.83470016e-03  1.40373012e-02  6.88426061e-02
  2.32184421e-01  4.67941342e-01  3.62312032e-01 -1.19332409e-01 -1.60854212e-01
  1.14345648e+00  6.89990956e-02  3.16423980e-01  7.44308252e-01  1.00000000e+00
  1.00000000e+00  1.00000000e+00  1.00000000e+00  1.00000000e+00  3.34945995e-02
  2.34726947e-01  8.13757318e-01  1.00000000e+00  3.34945995e-02  2.34726947e-01
  8.13757318e-01  1.00000000e+00  3.34945995e-02  2.34726947e-01  8.13757318e-01
  1.00000000e+00  1.83470016e-03  1.40373012e-02  6.88426061e-02  2.32184421e-01
  4.67941342e-01  3.62312032e-01 -1.19332409e-01 -1.60854212e-01  1.14345648e+00
  6.89990956e-02  3.16423980e-01  7.44308252e-01  1.00000000e+00  1.00000000e+00
  1.00000000e+00  1.00000000e+00  1.00000000e+00  1.83470016e-03  1.40373012e-02
  6.88426061e-02  2.32184421e-01  4.67941342e-01  3.62312032e-01 -1.19332409e-01
 -1.60854212e-01  1.14345648e+00  6.89990956e-02  3.16423980e-01  7.44308252e-01
  1.00000000e+00  1.00000000e+00  1.00000000e+00  1.00000000e+00  1.00000000e+00
  1.83470016e-03  1.40373012e-02  6.88426061e-02  2.32184421e-01  4.67941342e-01
  3.62312032e-01 -1.19332409e-01 -1.60854212e-01  1.14345648e+00  6.89990956e-02
  3.16423980e-01  7.44308252e-01  1.00000000e+00  1.00000000e+00  1.00000000e+00
  1.00000000e+00  1.00000000e+00  1.83470016e-03  1.40373012e-02  6.88426061e-02
  2.32184421e-01  4.67941342e-01  3.62312032e-01 -1.19332409e-01 -1.60854212e-01
  1.14345648e+00  6.89990956e-02  3.16423980e-01  7.44308252e-01  1.00000000e+00
  1.00000000e+00  1.00000000e+00  1.00000000e+00  1.00000000e+00  1.83470016e-03
  1.40373012e-02  6.88426061e-02  2.32184421e-01  4.67941342e-01  3.62312032e-01
 -1.19332409e-01 -1.60854212e-01  1.14345648e+00  6.89990956e-02  3.16423980e-01
  7.44308252e-01  1.00000000e+00  1.00000000e+00  1.00000000e+00  1.00000000e+00
  1.00000000e+00  1.83470016e-03  1.40373012e-02  6.88426061e-02  2.32184421e-01
  4.67941342e-01  3.62312032e-01 -1.19332409e-01 -1.60854212e-01  1.14345648e+00
  6.89990956e-02  3.16423980e-01  7.44308252e-01  1.00000000e+00  1.00000000e+00
  1.00000000e+00  1.00000000e+00  1.00000000e+00  3.34945995e-02  2.34726947e-01
  8.13757318e-01  1.00000000e+00  3.34945995e-02  2.34726947e-01  8.13757318e-01
  1.00000000e+00  3.34945995e-02  2.34726947e-01  8.13757318e-01  1.00000000e+00
  3.34945995e-02  2.34726947e-01  8.13757318e-01  1.00000000e+00  1.81961690e-03
  1.39160796e-02  6.84053245e-02  2.33185760e-01  4.71267439e-01  3.56618546e-01
 -1.08506975e-01 -1.46451658e-01  1.12868858e+00  7.16287242e-02  3.45912103e-01
  7.22469956e-01  1.00000000e+00  1.00000000e+00  1.00000000e+00  1.00000000e+00
  1.00000000e+00  3.34945995e-02  2.34726947e-01  8.13757318e-01  1.00000000e+00
  3.34945995e-02  2.34726947e-01  8.13757318e-01  1.00000000e+00  3.34945995e-02
  2.34726947e-01  8.13757318e-01  1.00000000e+00  3.34945995e-02  2.34726947e-01
  8.13757318e-01  1.00000000e+00  3.34945995e-02  2.34726947e-01  8.13757318e-01
  1.00000000e+00
Coordinates of each shell                  R   N=         480
  2.99144066e+00 -3.03879517e+00 -3.29518835e+00  2.99144066e+00 -3.03879517e+00
 -3.29518835e+00  2.99144066e+00 -3.03879517e+00 -3.29518835e+00  2.99144066e+00
 -3.03879517e+00 -3.29518835e+00  2.99144066e+00 -3.03879517e+00 -3.29518835e+00
  2.99144066e+00 -3.03879517e+00 -3.29518835e+00  2.99144066e+00 -3.03879517e+00
 -3.29518835e+00  2.99144066e+00 -3.03879517e+00 -3.29518835e+00 -4.78490599e-01
 -3.73523415e-01 -1.92775051e+00 -4.78490599e-01 -3.73523415e-01 -1.92775051e+00
 -4.78490599e-01 -3.73523415e-01 -1.92775051e+00 -4.78490599e-01 -3.73523415e-01
 -1.92775051e+00 -4.78490599e-01 -3.73523415e-01 -1.92775051e+00 -4.78490599e-01
 -3.73523415e-01 -1.92775051e+00 -4.78490599e-01 -3.73523415e-01 -1.92775051e+00
 -4.78490599e-01 -3.73523415e-01 -1.92775051e+00  2.36247379e+00 -9.98940968e-01
 -2.43644491e+00  2.36247379e+00 -9.98940968e-01 -2.43644491e+00  2.36247379e+00
 -9.98940968e-01 -2.43644491e+00  2.36247379e+00 -9.98940968e-01 -2.43644491e+00
  2.36247379e+00 -9.98940968e-01 -2.43644491e+00  2.36247379e+00 -9.98940968e-01
 -2.43644491e+00  2.36247379e+00 -9.98940968e-01 -2.43644491e+00  2.36247379e+00
 -9.98940968e-01 -2.43644491e+00  4.26123137e+00  1.17274802e+00 -2.27066713e+00
  4.26123137e+00  1.17274802e+00 -2.27066713e+00  4.26123137e+00  1.17274802e+00
 -2.27066713e+00  4.26123137e+00  1.17274802e+00 -2.27066713e+00  4.26123137e+00
  1.17274802e+00 -2.27066713e+00  4.26123137e+00  1.17274802e+00 -2.27066713e+00
  4.26123137e+00  1.17274802e+00 -2.27066713e+00  4.26123137e+00  1.17274802e+00
 -2.27066713e+00  3.14694153e+00  3.67421693e+00 -1.32694117e+00  3.14694153e+00
  3.67421693e+00 -1.32694117e+00  3.14694153e+00  3.67421693e+00 -1.32694117e+00
  3.14694153e+00  3.67421693e+00 -1.32694117e+00  3.14694153e+00  3.67421693e+00
 -1.32694117e+00  3.14694153e+00  3.67421693e+00 -1.32694117e+00  3.14694153e+00
  3.67421693e+00 -1.32694117e+00  3.14694153e+00  3.67421693e+00 -1.32694117e+00
  6.67721664e-01  4.37763253e+00 -2.70878673e+00  6.67721664e-01  4.37763253e+00
 -2.70878673e+00  6.67721664e-01  4.37763253e+00 -2.70878673e+00  6.67721664e-01
  4.37763253e+00 -2.70878673e+00  6.67721664e-01  4.37763253e+00 -2.70878673e+00
  6.67721664e-01  4.37763253e+00 -2.70878673e+00  6.67721664e-01  4.37763253e+00
 -2.70878673e+00  6.67721664e-01  4.37763253e+00 -2.70878673e+00 -8.80003512e-01
  2.05120929e+00 -3.56690490e+00 -8.80003512e-01  2.05120929e+00 -3.56690490e+00
 -8.80003512e-01  2.05120929e+00 -3.56690490e+00 -8.80003512e-01  2.05120929e+00
 -3.56690490e+00 -8.80003512e-01  2.05120929e+00 -3.56690490e+00 -8.80003512e-01
  2.05120929e+00 -3.56690490e+00 -8.80003512e-01  2.05120929e+00 -3.56690490e+00
 -8.80003512e-01  2.05120929e+00 -3.56690490e+00  1.08937349e+00  5.53171204e+00
 -4.37920757e+00  1.08937349e+00  5.53171204e+00 -4.37920757e+00 -4.81171814e-01
  5.56627066e+00 -1.46031717e+00 -4.81171814e-01  5.56627066e+00 -1.46031717e+00
 -2.90134782e+00  2.48000348e+00 -3.62627545e+00 -2.90134782e+00  2.48000348e+00
 -3.62627545e+00 -3.60578775e-01  1.54006356e+00 -5.51257541e+00 -3.60578775e-01
  1.54006356e+00 -5.51257541e+00 -2.18644786e+00 -2.32891902e+00 -2.91598313e+00
 -2.18644786e+00 -2.32891902e+00 -2.91598313e+00 -2.18644786e+00 -2.32891902e+00
 -2.91598313e+00 -2.18644786e+00 -2.32891902e+00 -2.91598313e+00 -2.18644786e+00
 -2.32891902e+00 -2.91598313e+00 -2.18644786e+00 -2.32891902e+00 -2.91598313e+00
 -2.18644786e+00 -2.32891902e+00 -2.91598313e+00 -2.18644786e+00 -2.32891902e+00
 -2.91598313e+00 -2.32842209e+00 -4.72406342e+00 -1.51249032e+00 -2.32842209e+00
 -4.72406342e+00 -1.51249032e+00 -2.32842209e+00 -4.72406342e+00 -1.51249032e+00
 -2.32842209e+00 -4.72406342e+00 -1.51249032e+00 -2.32842209e+00 -4.72406342e+00
 -1.51249032e+00 -2.32842209e+00 -4.72406342e+00 -1.51249032e+00 -2.32842209e+00
 -4.72406342e+00 -1.51249032e+00 -2.32842209e+00 -4.72406342e+00 -1.51249032e+00
 -3.25643004e+00 -4.41295050e+00  3.09156446e-01 -3.25643004e+00 -4.41295050e+00
  3.09156446e-01 -4.89145057e-01 -5.62909965e+00 -1.19086960e+00 -4.89145057e-01
 -5.62909965e+00 -1.19086960e+00 -3.51836128e+00 -6.01914260e+00 -2.60309857e+00
 -3.51836128e+00 -6.01914260e+00 -2.60309857e+00 -1.17509310e+00  1.18003699e-01
  8.47449986e-01 -1.17509310e+00  1.18003699e-01  8.47449986e-01 -1.17509310e+00
  1.18003699e-01  8.47449986e-01 -1.17509310e+00  1.18003699e-01  8.47449986e-01
 -1.17509310e+00  1.18003699e-01  8.47449986e-01 -1.17509310e+00  1.18003699e-01
  8.47449986e-01 -1.17509310e+00  1.18003699e-01  8.47449986e-01 -1.17509310e+00
  1.18003699e-01  8.47449986e-01 -3.56088339e+00  1.13249496e+00  1.42909763e+00
 -3.56088339e+00  1.13249496e+00  1.42909763e+00 -3.56088339e+00  1.13249496e+00
  1.42909763e+00 -3.56088339e+00  1.13249496e+00  1.42909763e+00 -3.56088339e+00
  1.13249496e+00  1.42909763e+00 -3.56088339e+00  1.13249496e+00  1.42909763e+00
 -3.56088339e+00  1.13249496e+00  1.42909763e+00 -3.56088339e+00  1.13249496e+00
  1.42909763e+00 -4.34129849e+00  1.53345323e+00  3.91408883e+00 -4.34129849e+00
  1.53345323e+00  3.91408883e+00 -4.34129849e+00  1.53345323e+00  3.91408883e+00
 -4.34129849e+00  1.53345323e+00  3.91408883e+00 -4.34129849e+00  1.53345323e+00
  3.91408883e+00 -4.34129849e+00  1.53345323e+00  3.91408883e+00 -4.34129849e+00
  1.53345323e+00  3.91408883e+00 -4.34129849e+00  1.53345323e+00  3.91408883e+00
 -2.73839320e+00  9.09122095e-01  5.92059003e+00 -2.73839320e+00  9.09122095e-01
  5.92059003e+00 -2.73839320e+00  9.09122095e-01  5.92059003e+00 -2.73839320e+00
  9.09122095e-01  5.92059003e+00 -2.73839320e+00  9.09122095e-01  5.92059003e+00
 -2.73839320e+00  9.09122095e-01  5.92059003e+00 -2.73839320e+00  9.09122095e-01
  5.92059003e+00 -2.73839320e+00  9.09122095e-01  5.92059003e+00 -3.69128618e-01
 -1.25810395e-01  5.41632167e+00 -3.69128618e-01 -1.25810395e-01  5.41632167e+00
 -3.69128618e-01 -1.25810395e-01  5.41632167e+00 -3.69128618e-01 -1.25810395e-01
  5.41632167e+00 -3.69128618e-01 -1.25810395e-01  5.41632167e+00 -3.69128618e-01
 -1.25810395e-01  5.41632167e+00 -3.69128618e-01 -1.25810395e-01  5.41632167e+00
 -3.69128618e-01 -1.25810395e-01  5.41632167e+00  3.40940155e-01 -5.03357905e-01
  2.91320799e+00  3.40940155e-01 -5.03357905e-01  2.91320799e+00  3.40940155e-01
 -5.03357905e-01  2.91320799e+00  3.40940155e-01 -5.03357905e-01  2.91320799e+00
  3.40940155e-01 -5.03357905e-01  2.91320799e+00  3.40940155e-01 -5.03357905e-01
  2.91320799e+00  3.40940155e-01 -5.03357905e-01  2.91320799e+00  3.40940155e-01
 -5.03357905e-01  2.91320799e+00 -4.84048075e+00  1.57082374e+00 -1.12669882e-01
 -4.84048075e+00  1.57082374e+00 -1.12669882e-01 -6.20117207e+00  2.32085485e+00
  4.28297803e+00 -6.20117207e+00  2.32085485e+00  4.28297803e+00 -3.32784768e+00
  1.21405348e+00  7.86351161e+00 -3.32784768e+00  1.21405348e+00  7.86351161e+00
  9.29981115e-01 -6.55797498e-01  6.91276472e+00  9.29981115e-01 -6.55797498e-01
  6.91276472e+00  2.66953595e+00 -1.53810682e+00  2.50994912e+00  2.66953595e+00
 -1.53810682e+00  2.50994912e+00  2.66953595e+00 -1.53810682e+00  2.50994912e+00
  2.66953595e+00 -1.53810682e+00  2.50994912e+00  2.66953595e+00 -1.53810682e+00
  2.50994912e+00  2.66953595e+00 -1.53810682e+00  2.50994912e+00  2.66953595e+00
 -1.53810682e+00  2.50994912e+00  2.66953595e+00 -1.53810682e+00  2.50994912e+00
 -1.63609079e+00 -2.72209707e+00 -4.71888850e+00 -1.63609079e+00 -2.72209707e+00
 -4.71888850e+00  5.03870217e+00  1.38160939e+00 -4.18657212e+00  5.03870217e+00
  1.38160939e+00 -4.18657212e+00  5.83826688e+00  5.43531390e-01 -1.08428998e+00
  5.83826688e+00  5.43531390e-01 -1.08428998e+00  4.54366092e+00  5.18835161e+00
 -1.55373412e+00  4.54366092e+00  5.18835161e+00 -1.55373412e+00  2.78682765e+00
  3.53301606e+00  7.05822814e-01  2.78682765e+00  3.53301606e+00  7.05822814e-01
Total Energy                               R     -7.348413972115907e+02
Alpha Orbital Energies                     R   N=         336
 -2.47322570e+01 -1.91469617e+01 -1.43281249e+01 -1.02890738e+01 -1.02796079e+01
 -1.02462704e+01 -1.02220599e+01 -1.02151564e+01 -1.02128643e+01 -1.02111613e+01
 -1.02085211e+01 -1.02005885e+01 -1.01964316e+01 -1.01957522e+01 -1.01956020e+01
 -1.01942555e+01 -1.23668111e+00 -1.04715667e+00 -9.16476892e-01 -8.74333632e-01