Generated by Psi4
     FORCE                           RHF                       TESTBAS
Number of atoms                            I               23
Charge                                     I                0
Multiplicity                               I                1
Number of electrons                        I               90
Number of alpha electrons                  I               45
Number of beta electrons                   I               45
Number of basis functions                  I              237
Number of independent functions            I              237
Atomic numbers                             I   N=          23
           6           6           6           1           1           7
           6           6           6           6           6           1
           1           1           1           6           1           1
           1           1           1           1          17
Nuclear charges                            R   N=          23
  6.00000000e+00  6.00000000e+00  6.00000000e+00  1.00000000e+00  1.00000000e+00
  7.00000000e+00  6.00000000e+00  6.00000000e+00  6.00000000e+00  6.00000000e+00
  6.00000000e+00  1.00000000e+00  1.00000000e+00  1.00000000e+00  1.00000000e+00
  6.00000000e+00  1.00000000e+00  1.00000000e+00  1.00000000e+00  1.00000000e+00
  1.00000000e+00  1.00000000e+00  1.70000000e+01
Current cartesian coordinates              R   N=          69
  6.79410925e-01 -3.79065629e-01  1.43313301e+00 -7.83364719e-01 -1.79576319e+00
  3.44353003e+00 -3.62607504e+00 -1.06084307e+00  3.65544611e+00  1.09286903e-01
 -1.50378093e+00  5.29567622e+00 -6.83466021e-01 -3.83244008e+00  3.05047812e+00
 -5.05394971e+00 -2.70521107e+00  5.37530194e+00  2.35154438e+00  1.58054604e+00
  2.05469118e+00  3.65789806e+00  2.89463196e+00  1.74092938e-01  3.32578779e+00
  2.28338943e+00 -2.37168793e+00  1.66553697e+00  3.29114854e-01 -2.98446282e+00
  3.54162908e-01 -9.98919093e-01 -1.12608838e+00 -9.08256512e-01 -2.52345415e+00
 -1.67183293e+00 -4.39827746e+00 -2.53864175e+00  7.18034566e+00 -4.87800207e+00
 -4.55764472e+00  4.87994545e+00  4.95154872e+00  4.40482310e+00  6.88980989e-01
 -3.99348767e+00  1.68642258e+00  4.47975161e+00 -4.48097314e+00 -1.29566603e+00
  1.77783367e+00 -3.19220587e+00  1.99984378e+00  6.37095553e+00 -6.00983052e+00
  2.14001324e+00  4.55779380e+00 -3.06644882e+00  2.99783914e+00  3.17599808e+00
  2.63792990e+00  2.07747811e+00  4.02790611e+00  4.33433902e+00  3.28880112e+00
 -3.84698358e+00  1.22681098e+00 -4.93445098e-01 -6.18082631e+00
Integer atomic weights                     I   N=          23
          12          12          12           1           1          14
          12          12          12          12          12           1
           1           1           1          12           1           1
           1           1           1           1          34
Real atomic weights                        R   N=          23
  1.20000000e+01  1.20000000e+01  1.20000000e+01  1.00782503e+00  1.00782503e+00
  1.40030740e+01  1.20000000e+01  1.20000000e+01  1.20000000e+01  1.20000000e+01
  1.20000000e+01  1.00782503e+00  1.00782503e+00  1.00782503e+00  1.00782503e+00
  1.20000000e+01  1.00782503e+00  1.00782503e+00  1.00782503e+00  1.00782503e+00
  1.00782503e+00  1.00782503e+00  3.49688527e+01
Number of primitive shells                 I              247
Number of contracted shells                I              114
Pure/Cartesian d shells                    I                1
Pure/Cartesian f shells                    I                1
Highest angular momentum                   I                2
Largest degree of contraction              I                6
Shell types                                I   N=         114
           0           0           1           0           1           2
           0           1           0           0           1           0
           1           2           0           1           0           0
           1           0           1           2           0           1
           0           0           0           0           0           0
           1           0           1           2           0           1
           0           0           1           0           1           2
           0           1           0           0           1           0
           1           2           0           1           0           0
           1           0           1           2           0           1
           0           0           1           0           1           2
           0           1           0           0           1           0
           1           2           0           1           0           0
           0           0           0           0           0           0
           0           0           1           0           1           2
           0           1           0           0           0           0
           0           0           0           0           0           0
           0           0           0           0           1           0
           1           0           1           2           0           1
Number of primitives per shell             I   N=         114
           6           3           3           1           1           1
           1           1           6           3           3           1
           1           1           1           1           6           3
           3           1           1           1           1           1
           3           1           3           1           6           3
           3           1           1           1           1           1
           6           3           3           1           1           1
           1           1           6           3           3           1
           1           1           1           1           6           3
           3           1           1           1           1           1
           6           3           3           1           1           1
           1           1           6           3           3           1
           1           1           1           1           3           1
           3           1           3           1           3           1
           6           3           3           1           1           1
           1           1           3           1           3           1
           3           1           3           1           3           1
           3           1           6           6           6           3
           3           1           1           1           1           1
Shell to atom map                          I   N=         114
           1           1           1           1           1           1
           1           1           2           2           2           2
           2           2           2           2           3           3
           3           3           3           3           3           3
           4           4           5           5           6           6
           6           6           6           6           6           6
           7           7           7           7           7           7
           7           7           8           8           8           8
           8           8           8           8           9           9
           9           9           9           9           9           9
          10          10          10          10          10          10
          10          10          11          11          11          11
          11          11          11          11          12          12
          13          13          14          14          15          15
          16          16          16          16          16          16
          16          16          17          17          18          18
          19          19          20          20          21          21
          22          22          23          23          23          23
          23          23          23          23          23          23
Primitive exponents                        R   N=         247
  3.04752490e+03  4.57369510e+02  1.03948690e+02  2.92101550e+01  9.28666300e+00
  3.16392700e+00  7.86827240e+00  1.88128850e+00  5.44249300e-01  7.86827240e+00
  1.88128850e+00  5.44249300e-01  1.68714400e-01  1.68714400e-01  8.00000000e-01
  4.38000000e-02  4.38000000e-02  3.04752490e+03  4.57369510e+02  1.03948690e+02
  2.92101550e+01  9.28666300e+00  3.16392700e+00  7.86827240e+00  1.88128850e+00
  5.44249300e-01  7.86827240e+00  1.88128850e+00  5.44249300e-01  1.68714400e-01
  1.68714400e-01  8.00000000e-01  4.38000000e-02  4.38000000e-02  3.04752490e+03
  4.57369510e+02  1.03948690e+02  2.92101550e+01  9.28666300e+00  3.16392700e+00
  7.86827240e+00  1.88128850e+00  5.44249300e-01  7.86827240e+00  1.88128850e+00
  5.44249300e-01  1.68714400e-01  1.68714400e-01  8.00000000e-01  4.38000000e-02
  4.38000000e-02  1.87311370e+01  2.82539370e+00  6.40121700e-01  1.61277800e-01
  1.87311370e+01  2.82539370e+00  6.40121700e-01  1.61277800e-01  4.17351100e+03
  6.27457900e+02  1.42902100e+02  4.02343300e+01  1.28202100e+01  4.39043700e+00
  1.16263580e+01  2.71628000e+00  7.72218000e-01  1.16263580e+01  2.71628000e+00
  7.72218000e-01  2.12031300e-01  2.12031300e-01  8.00000000e-01  6.39000000e-02
  6.39000000e-02  3.04752490e+03  4.57369510e+02  1.03948690e+02  2.92101550e+01
  9.28666300e+00  3.16392700e+00  7.86827240e+00  1.88128850e+00  5.44249300e-01
  7.86827240e+00  1.88128850e+00  5.44249300e-01  1.68714400e-01  1.68714400e-01
  8.00000000e-01  4.38000000e-02  4.38000000e-02  3.04752490e+03  4.57369510e+02
  1.03948690e+02  2.92101550e+01  9.28666300e+00  3.16392700e+00  7.86827240e+00
  1.88128850e+00  5.44249300e-01  7.86827240e+00  1.88128850e+00  5.44249300e-01
  1.68714400e-01  1.68714400e-01  8.00000000e-01  4.38000000e-02  4.38000000e-02
  3.04752490e+03  4.57369510e+02  1.03948690e+02  2.92101550e+01  9.28666300e+00
  3.16392700e+00  7.86827240e+00  1.88128850e+00  5.44249300e-01  7.86827240e+00
  1.88128850e+00  5.44249300e-01  1.68714400e-01  1.68714400e-01  8.00000000e-01
  4.38000000e-02  4.38000000e-02  3.04752490e+03  4.57369510e+02  1.03948690e+02
  2.92101550e+01  9.28666300e+00  3.16392700e+00  7.86827240e+00  1.88128850e+00
  5.44249300e-01  7.86827240e+00  1.88128850e+00  5.44249300e-01  1.68714400e-01
  1.68714400e-01  8.00000000e-01  4.38000000e-02  4.38000000e-02  3.04752490e+03
  4.57369510e+02  1.03948690e+02  2.92101550e+01  9.28666300e+00  3.16392700e+00
  7.86827240e+00  1.88128850e+00  5.44249300e-01  7.86827240e+00  1.88128850e+00
  5.44249300e-01  1.68714400e-01  1.68714400e-01  8.00000000e-01  4.38000000e-02
  4.38000000e-02  1.87311370e+01  2.82539370e+00  6.40121700e-01  1.61277800e-01
  1.87311370e+01  2.82539370e+00  6.40121700e-01  1.61277800e-01  1.87311370e+01
  2.82539370e+00  6.40121700e-01  1.61277800e-01  1.87311370e+01  2.82539370e+00
  6.40121700e-01  1.61277800e-01  3.04752490e+03  4.57369510e+02  1.03948690e+02
  2.92101550e+01  9.28666300e+00  3.16392700e+00  7.86827240e+00  1.88128850e+00
  5.44249300e-01  7.86827240e+00  1.88128850e+00  5.44249300e-01  1.68714400e-01
  1.68714400e-01  8.00000000e-01  4.38000000e-02  4.38000000e-02  1.87311370e+01
  2.82539370e+00  6.40121700e-01  1.61277800e-01  1.87311370e+01  2.82539370e+00
  6.40121700e-01  1.61277800e-01  1.87311370e+01  2.82539370e+00  6.40121700e-01
  1.61277800e-01  1.87311370e+01  2.82539370e+00  6.40121700e-01  1.61277800e-01
  1.87311370e+01  2.82539370e+00  6.40121700e-01  1.61277800e-01  1.87311370e+01
  2.82539370e+00  6.40121700e-01  1.61277800e-01  2.51801000e+04  3.78035000e+03
  8.60474000e+02  2.42145000e+02  7.73349000e+01  2.62470000e+01  4.91765000e+02
  1.16984000e+02  3.74153000e+01  1.37834000e+01  5.45215000e+00  2.22588000e+00
  4.91765000e+02  1.16984000e+02  3.74153000e+01  1.37834000e+01  5.45215000e+00
  2.22588000e+00  3.18649000e+00  1.14427000e+00  4.20377000e-01  3.18649000e+00
  1.14427000e+00  4.20377000e-01  1.42657000e-01  1.42657000e-01  7.50000000e-01
  4.83000000e-02  4.83000000e-02
Contraction coefficients                   R   N=         247
  1.83470016e-03  1.40373012e-02  6.88426061e-02  2.32184421e-01  4.67941342e-01
  3.62312032e-01 -1.19332409e-01 -1.60854212e-01  1.14345648e+00  6.89990956e-02
  3.16423980e-01  7.44308252e-01  1.00000000e+00  1.00000000e+00  1.00000000e+00
  1.00000000e+00  1.00000000e+00  1.83470016e-03  1.40373012e-02  6.88426061e-02
  2.32184421e-01  4.67941342e-01  3.62312032e-01 -1.19332409e-01 -1.60854212e-01
  1.14345648e+00  6.89990956e-02  3.16423980e-01  7.44308252e-01  1.00000000e+00
  1.00000000e+00  1.00000000e+00  1.00000000e+00  1.00000000e+00  1.83470016e-03
  1.40373012e-02  6.88426061e-02  2.32184421e-01  4.67941342e-01  3.62312032e-01
 -1.19332409e-01 -1.60854212e-01  1.14345648e+00  6.89990956e-02  3.16423980e-01
  7.44308252e-01  1.00000000e+00  1.00000000e+00  1.00000000e+00  1.00000000e+00
  1.00000000e+00  3.34945995e-02  2.34726947e-01  8.13757318e-01  1.00000000e+00
  3.34945995e-02  2.34726947e-01  8.13757318e-01  1.00000000e+00  1.83479944e-03
  1.39949958e-02  6.85869792e-02  2.32240930e-01  4.69069858e-01  3.60454891e-01
 -1.14961023e-01 -1.69118034e-01  1.14585223e+00  6.75800232e-02  3.23907111e-01
  7.40895255e-01  1.00000000e+00  1.00000000e+00  1.00000000e+00  1.00000000e+00
  1.00000000e+00  1.83470016e-03  1.40373012e-02  6.88426061e-02  2.32184421e-01
  4.67941342e-01  3.62312032e-01 -1.19332409e-01 -1.60854212e-01  1.14345648e+00
  6.89990956e-02  3.16423980e-01  7.44308252e-01  1.00000000e+00  1.00000000e+00
  1.00000000e+00  1.00000000e+00  1.00000000e+00  1.83470016e-03  1.40373012e-02
  6.88426061e-02  2.32184421e-01  4.67941342e-01  3.62312032e-01 -1.19332409e-01
 -1.60854212e-01  1.14345648e+00  6.89990956e-02  3.16423980e-01  7.44308252e-01
  1.00000000e+00  1.00000000e+00  1.00000000e+00  1.00000000e+00  1.00000000e+00
  1.83470016e-03  1.40373012e-02  6.88426061e-02  2.32184421e-01  4.67941342e-01
  3.62312032e-01 -1.19332409e-01 -1.60854212e-01  1.14345648e+00  6.89990956e-02
  3.16423980e-01  7.44308252e-01  1.00000000e+00  1.00000000e+00  1.00000000e+00
  1.00000000e+00  1.00000000e+00  1.83470016e-03  1.40373012e-02  6.88426061e-02
  2.32184421e-01  4.67941342e-01  3.62312032e-01 -1.19332409e-01 -1.60854212e-01
  1.14345648e+00  6.89990956e-02  3.16423980e-01  7.44308252e-01  1.00000000e+00
  1.00000000e+00  1.00000000e+00  1.00000000e+00  1.00000000e+00  1.83470016e-03
  1.40373012e-02  6.88426061e-02  2.32184421e-01  4.67941342e-01  3.62312032e-01
 -1.19332409e-01 -1.60854212e-01  1.14345648e+00  6.89990956e-02  3.16423980e-01
  7.44308252e-01  1.00000000e+00  1.00000000e+00  1.00000000e+00  1.00000000e+00
  1.00000000e+00  3.34945995e-02  2.34726947e-01  8.13757318e-01  1.00000000e+00
  3.34945995e-02  2.34726947e-01  8.13757318e-01  1.00000000e+00  3.34945995e-02
  2.34726947e-01  8.13757318e-01  1.00000000e+00  3.34945995e-02  2.34726947e-01
  8.13757318e-01  1.00000000e+00  1.83470016e-03  1.40373012e-02  6.88426061e-02
  2.32184421e-01  4.67941342e-01  3.62312032e-01 -1.19332409e-01 -1.60854212e-01
  1.14345648e+00  6.89990956e-02  3.16423980e-01  7.44308252e-01  1.00000000e+00
  1.00000000e+00  1.00000000e+00  1.00000000e+00  1.00000000e+00  3.34945995e-02
  2.34726947e-01  8.13757318e-01  1.00000000e+00  3.34945995e-02  2.34726947e-01
  8.13757318e-01  1.00000000e+00  3.34945995e-02  2.34726947e-01  8.13757318e-01
  1.00000000e+00  3.34945995e-02  2.34726947e-01  8.13757318e-01  1.00000000e+00
  3.34945995e-02  2.34726947e-01  8.13757318e-01  1.00000000e+00  3.34945995e-02
  2.34726947e-01  8.13757318e-01  1.00000000e+00  1.83300031e-03  1.40340024e-02
  6.90970118e-02  2.37452040e-01  4.83034082e-01  3.39856058e-01 -2.29740199e-03
 -3.07140266e-02 -1.12528097e-01  4.50160390e-02  5.89353510e-01  4.65206403e-01
  3.98940055e-03  3.03180042e-02  1.29880018e-01  3.27951045e-01  4.53527062e-01
  2.52154035e-01 -2.51831288e-01  6.15893150e-02  1.06018542e+00 -1.42990127e-02
  3.23572288e-01  7.43507661e-01  1.00000000e+00  1.00000000e+00  1.00000000e+00
  1.00000000e+00  1.00000000e+00
Coordinates of each shell                  R   N=         342
  6.79410925e-01 -3.79065629e-01  1.43313301e+00  6.79410925e-01 -3.79065629e-01
  1.43313301e+00  6.79410925e-01 -3.79065629e-01  1.43313301e+00  6.79410925e-01
 -3.79065629e-01  1.43313301e+00  6.79410925e-01 -3.79065629e-01  1.43313301e+00
  6.79410925e-01 -3.79065629e-01  1.43313301e+00  6.79410925e-01 -3.79065629e-01
  1.43313301e+00  6.79410925e-01 -3.79065629e-01  1.43313301e+00 -7.83364719e-01
 -1.79576319e+00  3.44353003e+00 -7.83364719e-01 -1.79576319e+00  3.44353003e+00
 -7.83364719e-01 -1.79576319e+00  3.44353003e+00 -7.83364719e-01 -1.79576319e+00
  3.44353003e+00 -7.83364719e-01 -1.79576319e+00  3.44353003e+00 -7.83364719e-01
 -1.79576319e+00  3.44353003e+00 -7.83364719e-01 -1.79576319e+00  3.44353003e+00
 -7.83364719e-01 -1.79576319e+00  3.44353003e+00 -3.62607504e+00 -1.06084307e+00
  3.65544611e+00 -3.62607504e+00 -1.06084307e+00  3.65544611e+00 -3.62607504e+00
 -1.06084307e+00  3.65544611e+00 -3.62607504e+00 -1.06084307e+00  3.65544611e+00
 -3.62607504e+00 -1.06084307e+00  3.65544611e+00 -3.62607504e+00 -1.06084307e+00
  3.65544611e+00 -3.62607504e+00 -1.06084307e+00  3.65544611e+00 -3.62607504e+00
 -1.06084307e+00  3.65544611e+00  1.09286903e-01 -1.50378093e+00  5.29567622e+00
  1.09286903e-01 -1.50378093e+00  5.29567622e+00 -6.83466021e-01 -3.83244008e+00
  3.05047812e+00 -6.83466021e-01 -3.83244008e+00  3.05047812e+00 -5.05394971e+00
 -2.70521107e+00  5.37530194e+00 -5.05394971e+00 -2.70521107e+00  5.37530194e+00
 -5.05394971e+00 -2.70521107e+00  5.37530194e+00 -5.05394971e+00 -2.70521107e+00
  5.37530194e+00 -5.05394971e+00 -2.70521107e+00  5.37530194e+00 -5.05394971e+00
 -2.70521107e+00  5.37530194e+00 -5.05394971e+00 -2.70521107e+00  5.37530194e+00
 -5.05394971e+00 -2.70521107e+00  5.37530194e+00  2.35154438e+00  1.58054604e+00
  2.05469118e+00  2.35154438e+00  1.58054604e+00  2.05469118e+00  2.35154438e+00
  1.58054604e+00  2.05469118e+00  2.35154438e+00  1.58054604e+00  2.05469118e+00
  2.35154438e+00  1.58054604e+00  2.05469118e+00  2.35154438e+00  1.58054604e+00
  2.05469118e+00  2.35154438e+00  1.58054604e+00  2.05469118e+00  2.35154438e+00
  1.58054604e+00  2.05469118e+00  3.65789806e+00  2.89463196e+00  1.74092938e-01
  3.65789806e+00  2.89463196e+00  1.74092938e-01  3.65789806e+00  2.89463196e+00
  1.74092938e-01  3.65789806e+00  2.89463196e+00  1.74092938e-01  3.65789806e+00
  2.89463196e+00  1.74092938e-01  3.65789806e+00  2.89463196e+00  1.74092938e-01
  3.65789806e+00  2.89463196e+00  1.74092938e-01  3.65789806e+00  2.89463196e+00
  1.74092938e-01  3.32578779e+00  2.28338943e+00 -2.37168793e+00  3.32578779e+00
  2.28338943e+00 -2.37168793e+00  3.32578779e+00  2.28338943e+00 -2.37168793e+00
  3.32578779e+00  2.28338943e+00 -2.37168793e+00  3.32578779e+00  2.28338943e+00
 -2.37168793e+00  3.32578779e+00  2.28338943e+00 -2.37168793e+00  3.32578779e+00
  2.28338943e+00 -2.37168793e+00  3.32578779e+00  2.28338943e+00 -2.37168793e+00
  1.66553697e+00  3.29114854e-01 -2.98446282e+00  1.66553697e+00  3.29114854e-01
 -2.98446282e+00  1.66553697e+00  3.29114854e-01 -2.98446282e+00  1.66553697e+00
  3.29114854e-01 -2.98446282e+00  1.66553697e+00  3.29114854e-01 -2.98446282e+00
  1.66553697e+00  3.29114854e-01 -2.98446282e+00  1.66553697e+00  3.29114854e-01
 -2.98446282e+00  1.66553697e+00  3.29114854e-01 -2.98446282e+00  3.54162908e-01
 -9.98919093e-01 -1.12608838e+00  3.54162908e-01 -9.98919093e-01 -1.12608838e+00
  3.54162908e-01 -9.98919093e-01 -1.12608838e+00  3.54162908e-01 -9.98919093e-01
 -1.12608838e+00  3.54162908e-01 -9.98919093e-01 -1.12608838e+00  3.54162908e-01
 -9.98919093e-01 -1.12608838e+00  3.54162908e-01 -9.98919093e-01 -1.12608838e+00
  3.54162908e-01 -9.98919093e-01 -1.12608838e+00 -9.08256512e-01 -2.52345415e+00
 -1.67183293e+00 -9.08256512e-01 -2.52345415e+00 -1.67183293e+00 -4.39827746e+00
 -2.53864175e+00  7.18034566e+00 -4.39827746e+00 -2.53864175e+00  7.18034566e+00
 -4.87800207e+00 -4.55764472e+00  4.87994545e+00 -4.87800207e+00 -4.55764472e+00
  4.87994545e+00  4.95154872e+00  4.40482310e+00  6.88980989e-01  4.95154872e+00
  4.40482310e+00  6.88980989e-01 -3.99348767e+00  1.68642258e+00  4.47975161e+00
 -3.99348767e+00  1.68642258e+00  4.47975161e+00 -3.99348767e+00  1.68642258e+00
  4.47975161e+00 -3.99348767e+00  1.68642258e+00  4.47975161e+00 -3.99348767e+00
  1.68642258e+00  4.47975161e+00 -3.99348767e+00  1.68642258e+00  4.47975161e+00
 -3.99348767e+00  1.68642258e+00  4.47975161e+00 -3.99348767e+00  1.68642258e+00
  4.47975161e+00 -4.48097314e+00 -1.29566603e+00  1.77783367e+00 -4.48097314e+00
 -1.29566603e+00  1.77783367e+00 -3.19220587e+00  1.99984378e+00  6.37095553e+00
 -3.19220587e+00  1.99984378e+00  6.37095553e+00 -6.00983052e+00  2.14001324e+00
  4.55779380e+00 -6.00983052e+00  2.14001324e+00  4.55779380e+00 -3.06644882e+00
  2.99783914e+00  3.17599808e+00 -3.06644882e+00  2.99783914e+00  3.17599808e+00
  2.63792990e+00  2.07747811e+00  4.02790611e+00  2.63792990e+00  2.07747811e+00
  4.02790611e+00  4.33433902e+00  3.28880112e+00 -3.84698358e+00  4.33433902e+00
  3.28880112e+00 -3.84698358e+00  1.22681098e+00 -4.93445098e-01 -6.18082631e+00
  1.22681098e+00 -4.93445098e-01 -6.18082631e+00  1.22681098e+00 -4.93445098e-01
 -6.18082631e+00  1.22681098e+00 -4.93445098e-01 -6.18082631e+00  1.22681098e+00
 -4.93445098e-01 -6.18082631e+00  1.22681098e+00 -4.93445098e-01 -6.18082631e+00
  1.22681098e+00 -4.93445098e-01 -6.18082631e+00  1.22681098e+00 -4.93445098e-01
 -6.18082631e+00  1.22681098e+00 -4.93445098e-01 -6.18082631e+00  1.22681098e+00
 -4.93445098e-01 -6.18082631e+00
Total Energy                               R     -8.651507263314629e+02
Alpha Orbital Energies                     R   N=         237
 -1.01555637e+02 -1.43281023e+01 -1.02616832e+01 -1.02280026e+01 -1.02173927e+01
 -1.02115065e+01 -1.02108029e+01 -1.02101087e+01 -1.02053974e+01 -1.02006360e+01
 -1.01806205e+01 -9.47079931e+00 -7.23481893e+00 -7.22516206e+00 -7.22488044e+00
 -9.00611394e-01 -8.94575486e-01 -8.46295124e-01 -7.90398090e-01 -7.48806793e-01
 -7.37695463e-01 -6.96289806e-01 -6.24583011e-01 -6.04317190e-01 -5.83342300e-01
 -5.25659946e-01 -5.05730445e-01 -4.83234237e-01 -4.71822404e-01 -4.63817436e-01
 -4.42478043e-01 -4.36781290e-01 -4.21565449e-01 -4.03837423e-01 -3.99129980e-01
 -3.79845159e-01 -3.67498175e-01 -3.65755953e-01 -3.58769370e-01 -3.45023682e-01
 -3.33795198e-01 -3.17812761e-01 -2.69002227e-01 -2.56013568e-01 -2.41400925e-01
 -2.97658655e-02 -2.55609774e-02 -5.70322024e-03  3.62489239e-03  1.24727869e-02
  1.44113028e-02  2.61938805e-02  3.10738153e-02  3.95103433e-02  4.38548225e-02
  5.49360169e-02  6.05000793e-02  6.16965359e-02  6.92658841e-02  7.77735529e-02
  8.58312494e-02  8.95217026e-02  9.21438326e-02  1.05074772e-01  1.05255269e-01
  1.11111232e-01  1.17984868e-01  1.20457667e-01  1.28358519e-01  1.29416170e-01
  1.32275558e-01  1.41147864e-01  1.45484812e-01  1.49473929e-01  1.55393791e-01
  1.66865841e-01  1.69808028e-01  1.79802374e-01  1.81703171e-01  1.85848797e-01
  1.91172232e-01  1.94159719e-01  1.95418005e-01  2.06369194e-01  2.09726879e-01
  2.17984422e-01  2.21354391e-01  2.25511765e-01  2.26211154e-01  2.30021449e-01
  2.32988232e-01  2.42622919e-01  2.47647611e-01  2.54784706e-01  2.62201063e-01
  2.69298216e-01  2.72559695e-01  2.80267409e-01  2.82803986e-01  2.88681983e-01
  2.99341050e-01  3.03980155e-01  3.07600746e-01  3.21999530e-01  3.26565259e-01
  3.37164203e-01  3.49664828e-01  3.56394175e-01  3.66198081e-01  3.76969906e-01
  3.78156022e-01  3.91507436e-01  4.54345017e-01  5.22683492e-01  5.44512496e-01
  6.08477719e-01  6.16527536e-01  6.18868491e-01  6.41030168e-01  6.57578371e-01
  6.68293018e-01  6.71142343e-01  6.74265917e-01  6.84654857e-01  6.97982345e-01
  6.99578639e-01  7.11749774e-01  7.17776526e-01  7.34034520e-01  7.44949987e-01
  7.54990469e-01  7.62494564e-01  7.74827245e-01  7.83741558e-01  7.92349870e-01
  8.01708351e-01  8.19489761e-01  8.36301507e-01  8.72505482e-01  8.81245300e-01
  8.94981564e-01  9.16431968e-01  9.27343022e-01  9.36817989e-01  9.41330177e-01
  9.51304151e-01  9.65950702e-01  9.73321379e-01  9.79589779e-01  9.93274290e-01
  1.00682177e+00  1.02009410e+00  1.03101954e+00  1.05263845e+00  1.05394968e+00
  1.06956964e+00  1.08806161e+00  1.09601711e+00  1.12185542e+00  1.13398503e+00
  1.15057815e+00  1.17276891e+00  1.17869964e+00  1.19999237e+00  1.20401072e+00
  1.21812462e+00  1.24140754e+00  1.26798174e+00  1.27009994e+00  1.34600442e+00
  1.39202574e+00  1.39952715e+00  1.42746285e+00  1.44309748e+00  1.45991505e+00
  1.46928112e+00  1.47948027e+00  1.50032009e+00  1.55235217e+00  1.56519860e+00
  1.59245448e+00  1.62785238e+00  1.71764279e+00  1.79025243e+00  1.80713049e+00
  1.82224096e+00  1.84608040e+00  1.85483026e+00  1.88847706e+00  1.90329165e+00
  1.95628963e+00  1.96194885e+00  1.99487943e+00  2.01516157e+00  2.04670463e+00
  2.07282349e+00  2.08837653e+00  2.10024507e+00  2.13168426e+00  2.15561620e+00
  2.16905342e+00  2.17648495e+00  2.20479199e+00  2.21611079e+00  2.24525700e+00
  2.27115588e+00  2.29132340e+00  2.32656684e+00  2.34012814e+00  2.40845656e+00
  2.41524053e+00  2.51756251e+00  2.56715352e+00  2.58329888e+00  2.59937568e+00
  2.62284557e+00  2.64246437e+00  2.70989208e+00  2.74412250e+00  2.74680676e+00
  2.76134981e+00  2.77536718e+00  2.83625952e+00  2.95803310e+00  3.05114144e+00
  3.36538770e+00  3.98387312e+00  4.22270684e+00  4.24100994e+00  4.25365050e+00
  4.31754428e+00  4.34949990e+00  4.37990614e+00  4.40703719e+00  4.47617512e+00
  4.60668737e+00  4.70124365e+00
Alpha MO coefficients                      R   N=       56169
 -1.29933315e-06 -7.87045421e-06 -2.17966772e-06 -2.69071258e-06  3.96801734e-06
  6.44633845e-05  5.47018661e-05  4.81112536e-05 -1.25934123e-04 -3.35662696e-06
 -1.03768987e-06  8.75281584e-06  3.14818133e-06  6.25550585e-06  8.22070305e-06
  1.77261677e-03  2.32572690e-04  1.76467499e-04 -1.19296344e-03 -9.82312788e-07
 -6.82014077e-06  1.52704415e-06  1.67130803e-06 -2.15726101e-06  9.00378044e-05
  1.38798723e-05  2.46341964e-05 -1.87980854e-05  1.43208803e-06  3.50040267e-07
 -5.72887258e-07  1.65581823e-06 -1.42807502e-06 -2.11321916e-06  7.13881667e-04
  6.15787936e-05  9.63827865e-05  3.44084703e-07  8.55183221e-07  3.75953057e-06
  1.43308010e-07  8.51635018e-07 -1.01823508e-06 -2.80795183e-05 -1.33913798e-05
  1.09710178e-06  3.82864728e-06  1.48240098e-07  1.63932085e-06  1.14890026e-06
 -4.70643243e-08  1.60355575e-07 -5.12501839e-08 -1.46114637e-04  2.89706190e-06
  2.49956118e-05 -4.45858575e-05 -3.89876487e-06  4.03920878e-06  1.29063071e-07
 -1.19176158e-05 -5.91847404e-08 -5.08912398e-07 -1.10171870e-06 -5.30590729e-07
  1.84732273e-07 -9.97292710e-07  7.67023759e-06  2.72851707e-06 -9.20768065e-07
  2.96165564e-07 -2.73393160e-07 -5.67276108e-08  4.39459893e-07 -4.68000475e-07
  7.83486200e-08  7.80251120e-05  8.58661903e-07  3.34904271e-06 -3.31341342e-07
  2.12053331e-06  1.23864525e-05 -5.15829362e-07 -4.88625038e-08  6.75939044e-07
 -1.40977429e-04  2.88993569e-06  1.05161912e-05  1.04892657e-04  1.36933532e-06
  8.74745829e-07 -7.91332416e-07 -2.99421530e-06  2.96836021e-07 -2.14006718e-07
 -1.00032481e-03 -1.61217543e-04 -1.63826258e-04  3.45612240e-04 -2.88391378e-06
 -1.41650995e-05  2.58620604e-06  3.13131177e-06  8.54398578e-07  1.17876161e-04
 -6.14782828e-05 -7.17018490e-05 -2.00138357e-05 -6.87732888e-06 -6.67827300e-06
  1.10281806e-05  1.51341785e-06 -1.96605548e-06 -9.36222523e-08  8.57354008e-04
 -1.36780291e-04 -1.36820291e-04  1.70351709e-04 -3.89347078e-06  1.00716347e-05
  6.83330335e-06  9.00086053e-06  1.22400156e-05 -9.88787467e-06  3.86464153e-06
  4.61560590e-06  2.02754620e-07 -1.37036396e-05 -1.64795625e-05 -3.25099406e-05
  1.70598962e-06 -1.79012695e-05 -2.21738414e-05  7.44936907e-04 -2.86955398e-05
 -2.97965570e-05  4.85032408e-06 -4.78073595e-06  7.65284637e-05 -6.02402602e-06
 -1.17332234e-05 -4.41112377e-05  9.27655118e-05 -6.24328905e-06 -1.41499271e-05
 -9.27193501e-05 -9.21385645e-06 -7.75774808e-06 -6.73075404e-05  1.96868658e-05
 -1.52408538e-05 -2.21621759e-05  1.28086064e-03 -4.86577288e-04 -6.12955157e-04
 -4.81363756e-04 -3.48301461e-06  1.19562608e-05 -3.13726214e-06 -1.27105477e-06
  1.76575807e-05 -3.37684351e-05 -2.57016129e-06 -9.38285763e-06 -3.51365709e-05
 -7.18690376e-06 -4.21026869e-06 -5.02973202e-05  1.12511658e-05  3.36782062e-06
 -1.90107749e-07 -3.43731273e-03 -3.18378850e-04 -3.77322716e-04  3.88091925e-05
 -5.82543519e-06 -3.56522227e-06  8.64352090e-08 -7.10555343e-06 -5.38528994e-07
  1.99538495e-07  5.23045421e-06  2.88236898e-05  6.03593523e-08  6.34520783e-08
  2.30640478e-09 -1.12795375e-06 -9.16658866e-07  7.20124627e-06  4.02053175e-06
  5.46231530e-06  2.34486726e-07  1.19528405e-07 -3.45493778e-08  5.49207010e-07
 -1.06581751e-07  1.64987035e-07 -1.44358147e-07  1.57519237e-05 -4.34400047e-06
 -5.09335249e-06  5.28757127e-06  1.42391826e-06 -5.98148272e-06 -1.09966694e-06
  3.12790207e-06  1.62955831e-07  6.03471695e-07  1.38852674e-06 -1.58116075e-05
 -5.11781904e-06 -2.43002729e-05 -3.41505385e-06 -1.05615093e-05  9.95997258e-01
  1.51483048e-02  6.21510658e-06  1.16578391e-05  4.51807390e-05 -2.10712348e-02
 -2.39259068e-06 -4.46663293e-06 -1.52639723e-05  1.88632382e-03 -9.57283042e-06
 -1.81096802e-05 -7.33386651e-05  7.52364243e-03  7.52282677e-03  7.50915560e-03
 -7.14703680e-07 -2.42986027e-06 -4.47634222e-06 -1.18718255e-03  2.92602283e-06
 -1.09555122e-05 -1.82416488e-04  1.30336434e-06  1.36445226e-05 -6.66896434e-06
 -6.26741480e-06  1.51444444e-05  1.40029527e-05  2.95049219e-04  2.39477635e-04
 -5.37109580e-04 -4.49691427e-06 -7.39226397e-07 -6.28377111e-06 -1.15939096e-05
  1.82855173e-05  1.61878917e-05  9.68017463e-03 -1.10099475e-03 -1.78335128e-03