Generated by Psi4
     FORCE                           RHF                       TESTBAS
Number of atoms                            I               26
Charge                                     I                0
Multiplicity                               I                1
Number of electrons                        I               90
Number of alpha electrons                  I               45
Number of beta electrons                   I               45
Number of basis functions                  I              256
Number of independent functions            I              256
Atomic numbers                             I   N=          26
           6           6           6           1           1           7
           6           6           6           6           6           6
           1           1           6           1           1           1
           1           1           1           1           1           1
           1           9
Nuclear charges                            R   N=          26
  6.00000000e+00  6.00000000e+00  6.00000000e+00  1.00000000e+00  1.00000000e+00
  7.00000000e+00  6.00000000e+00  6.00000000e+00  6.00000000e+00  6.00000000e+00
  6.00000000e+00  6.00000000e+00  1.00000000e+00  1.00000000e+00  6.00000000e+00
  1.00000000e+00  1.00000000e+00  1.00000000e+00  1.00000000e+00  1.00000000e+00
  1.00000000e+00  1.00000000e+00  1.00000000e+00  1.00000000e+00  1.00000000e+00
  9.00000000e+00
Current cartesian coordinates              R   N=          78
  1.17045964e+00 -1.78288556e-01  9.99454084e-02 -2.49541396e-01 -1.55815779e+00
  2.16373757e+00 -3.11327639e+00 -8.67710263e-01  2.32922746e+00  6.56220554e-01
 -1.17832174e+00  3.98862829e+00 -1.07894483e-01 -3.60512126e+00  1.83936511e+00
 -4.58029224e+00 -2.54942127e+00  3.98598202e+00  2.81223418e+00  1.83029613e+00
  6.51701476e-01  4.08215693e+00  3.11951017e+00 -1.27257433e+00  3.74519159e+00
  2.43544543e+00 -3.80045462e+00  2.11745023e+00  4.40170037e-01 -4.31461845e+00
  8.37213489e-01 -8.74225002e-01 -2.43963473e+00 -3.87662027e+00 -2.64948970e+00
  6.65677589e+00 -4.57692883e+00 -4.32756596e+00  3.25299879e+00  5.34943962e+00
  4.66633814e+00 -8.03878281e-01 -3.52848591e+00  1.90571805e+00  3.05445638e+00
 -3.91788637e+00 -1.14129039e+00  4.34932235e-01 -2.65649243e+00  2.36671595e+00
  4.87793011e+00 -5.55448960e+00  2.30554390e+00  3.18546812e+00 -2.69822240e+00
  3.16208676e+00  1.63625825e+00  3.10266632e+00  2.38649243e+00  2.60815390e+00
  4.71004719e+00  3.39875715e+00 -5.33227410e+00 -4.19808004e+00 -8.06973425e-01
  7.54108562e+00 -1.90111329e+00 -3.20868484e+00  7.03172088e+00 -5.11279132e+00
 -4.00963912e+00  7.60798630e+00 -3.93982490e-01 -2.43001401e+00 -2.96947802e+00
  1.76918356e+00 -2.68383669e-01 -6.76534375e+00
Integer atomic weights                     I   N=          26
          12          12          12           1           1          14
          12          12          12          12          12          12
           1           1          12           1           1           1
           1           1           1           1           1           1
           1          18
Real atomic weights                        R   N=          26
  1.20000000e+01  1.20000000e+01  1.20000000e+01  1.00782503e+00  1.00782503e+00
  1.40030740e+01  1.20000000e+01  1.20000000e+01  1.20000000e+01  1.20000000e+01
  1.20000000e+01  1.20000000e+01  1.00782503e+00  1.00782503e+00  1.20000000e+01
  1.00782503e+00  1.00782503e+00  1.00782503e+00  1.00782503e+00  1.00782503e+00
  1.00782503e+00  1.00782503e+00  1.00782503e+00  1.00782503e+00  1.00782503e+00
  1.89984032e+01
Number of primitive shells                 I              260
Number of contracted shells                I              124
Pure/Cartesian d shells                    I                1
Pure/Cartesian f shells                    I                1
Highest angular momentum                   I                2
Largest degree of contraction              I                6
Shell types                                I   N=         124
           0           0           1           0           1           2
           0           1           0           0           1           0
           1           2           0           1           0           0
           1           0           1           2           0           1
           0           0           0           0           0           0
           1           0           1           2           0           1
           0           0           1           0           1           2
           0           1           0           0           1           0
           1           2           0           1           0           0
           1           0           1           2           0           1
           0           0           1           0           1           2
           0           1           0           0           1           0
           1           2           0           1           0           0
           1           0           1           2           0           1
           0           0           0           0           0           0
           1           0           1           2           0           1
           0           0           0           0           0           0
           0           0           0           0           0           0
           0           0           0           0           0           0
           0           0           0           0           1           0
           1           2           0           1
Number of primitives per shell             I   N=         124
           6           3           3           1           1           1
           1           1           6           3           3           1
           1           1           1           1           6           3
           3           1           1           1           1           1
           3           1           3           1           6           3
           3           1           1           1           1           1
           6           3           3           1           1           1
           1           1           6           3           3           1
           1           1           1           1           6           3
           3           1           1           1           1           1
           6           3           3           1           1           1
           1           1           6           3           3           1
           1           1           1           1           6           3
           3           1           1           1           1           1
           3           1           3           1           6           3
           3           1           1           1           1           1
           3           1           3           1           3           1
           3           1           3           1           3           1
           3           1           3           1           3           1
           3           1           6           3           3           1
           1           1           1           1
Shell to atom map                          I   N=         124
           1           1           1           1           1           1
           1           1           2           2           2           2
           2           2           2           2           3           3
           3           3           3           3           3           3
           4           4           5           5           6           6
           6           6           6           6           6           6
           7           7           7           7           7           7
           7           7           8           8           8           8
           8           8           8           8           9           9
           9           9           9           9           9           9
          10          10          10          10          10          10
          10          10          11          11          11          11
          11          11          11          11          12          12
          12          12          12          12          12          12
          13          13          14          14          15          15
          15          15          15          15          15          15
          16          16          17          17          18          18
          19          19          20          20          21          21
          22          22          23          23          24          24
          25          25          26          26          26          26
          26          26          26          26
Primitive exponents                        R   N=         260
  3.04752490e+03  4.57369510e+02  1.03948690e+02  2.92101550e+01  9.28666300e+00
  3.16392700e+00  7.86827240e+00  1.88128850e+00  5.44249300e-01  7.86827240e+00
  1.88128850e+00  5.44249300e-01  1.68714400e-01  1.68714400e-01  8.00000000e-01
  4.38000000e-02  4.38000000e-02  3.04752490e+03  4.57369510e+02  1.03948690e+02
  2.92101550e+01  9.28666300e+00  3.16392700e+00  7.86827240e+00  1.88128850e+00
  5.44249300e-01  7.86827240e+00  1.88128850e+00  5.44249300e-01  1.68714400e-01
  1.68714400e-01  8.00000000e-01  4.38000000e-02  4.38000000e-02  3.04752490e+03
  4.57369510e+02  1.03948690e+02  2.92101550e+01  9.28666300e+00  3.16392700e+00
  7.86827240e+00  1.88128850e+00  5.44249300e-01  7.86827240e+00  1.88128850e+00
  5.44249300e-01  1.68714400e-01  1.68714400e-01  8.00000000e-01  4.38000000e-02
  4.38000000e-02  1.87311370e+01  2.82539370e+00  6.40121700e-01  1.61277800e-01
  1.87311370e+01  2.82539370e+00  6.40121700e-01  1.61277800e-01  4.17351100e+03
  6.27457900e+02  1.42902100e+02  4.02343300e+01  1.28202100e+01  4.39043700e+00
  1.16263580e+01  2.71628000e+00  7.72218000e-01  1.16263580e+01  2.71628000e+00
  7.72218000e-01  2.12031300e-01  2.12031300e-01  8.00000000e-01  6.39000000e-02
  6.39000000e-02  3.04752490e+03  4.57369510e+02  1.03948690e+02  2.92101550e+01
  9.28666300e+00  3.16392700e+00  7.86827240e+00  1.88128850e+00  5.44249300e-01
  7.86827240e+00  1.88128850e+00  5.44249300e-01  1.68714400e-01  1.68714400e-01
  8.00000000e-01  4.38000000e-02  4.38000000e-02  3.04752490e+03  4.57369510e+02
  1.03948690e+02  2.92101550e+01  9.28666300e+00  3.16392700e+00  7.86827240e+00
  1.88128850e+00  5.44249300e-01  7.86827240e+00  1.88128850e+00  5.44249300e-01
  1.68714400e-01  1.68714400e-01  8.00000000e-01  4.38000000e-02  4.38000000e-02
  3.04752490e+03  4.57369510e+02  1.03948690e+02  2.92101550e+01  9.28666300e+00
  3.16392700e+00  7.86827240e+00  1.88128850e+00  5.44249300e-01  7.86827240e+00
  1.88128850e+00  5.44249300e-01  1.68714400e-01  1.68714400e-01  8.00000000e-01
  4.38000000e-02  4.38000000e-02  3.04752490e+03  4.57369510e+02  1.03948690e+02
  2.92101550e+01  9.28666300e+00  3.16392700e+00  7.86827240e+00  1.88128850e+00
  5.44249300e-01  7.86827240e+00  1.88128850e+00  5.44249300e-01  1.68714400e-01
  1.68714400e-01  8.00000000e-01  4.38000000e-02  4.38000000e-02  3.04752490e+03
  4.57369510e+02  1.03948690e+02  2.92101550e+01  9.28666300e+00  3.16392700e+00
  7.86827240e+00  1.88128850e+00  5.44249300e-01  7.86827240e+00  1.88128850e+00
  5.44249300e-01  1.68714400e-01  1.68714400e-01  8.00000000e-01  4.38000000e-02
  4.38000000e-02  3.04752490e+03  4.57369510e+02  1.03948690e+02  2.92101550e+01
  9.28666300e+00  3.16392700e+00  7.86827240e+00  1.88128850e+00  5.44249300e-01
  7.86827240e+00  1.88128850e+00  5.44249300e-01  1.68714400e-01  1.68714400e-01
  8.00000000e-01  4.38000000e-02  4.38000000e-02  1.87311370e+01  2.82539370e+00
  6.40121700e-01  1.61277800e-01  1.87311370e+01  2.82539370e+00  6.40121700e-01
  1.61277800e-01  3.04752490e+03  4.57369510e+02  1.03948690e+02  2.92101550e+01
  9.28666300e+00  3.16392700e+00  7.86827240e+00  1.88128850e+00  5.44249300e-01
  7.86827240e+00  1.88128850e+00  5.44249300e-01  1.68714400e-01  1.68714400e-01
  8.00000000e-01  4.38000000e-02  4.38000000e-02  1.87311370e+01  2.82539370e+00
  6.40121700e-01  1.61277800e-01  1.87311370e+01  2.82539370e+00  6.40121700e-01
  1.61277800e-01  1.87311370e+01  2.82539370e+00  6.40121700e-01  1.61277800e-01
  1.87311370e+01  2.82539370e+00  6.40121700e-01  1.61277800e-01  1.87311370e+01
  2.82539370e+00  6.40121700e-01  1.61277800e-01  1.87311370e+01  2.82539370e+00
  6.40121700e-01  1.61277800e-01  1.87311370e+01  2.82539370e+00  6.40121700e-01
  1.61277800e-01  1.87311370e+01  2.82539370e+00  6.40121700e-01  1.61277800e-01
  1.87311370e+01  2.82539370e+00  6.40121700e-01  1.61277800e-01  1.87311370e+01
  2.82539370e+00  6.40121700e-01  1.61277800e-01  7.00171309e+03  1.05136609e+03
  2.39285690e+02  6.73974453e+01  2.15199573e+01  7.40310130e+00  2.08479528e+01
  4.80830834e+00  1.34406986e+00  2.08479528e+01  4.80830834e+00  1.34406986e+00
  3.58151393e-01  3.58151393e-01  8.00000000e-01  1.07600000e-01  1.07600000e-01
Contraction coefficients                   R   N=         260
  1.83470016e-03  1.40373012e-02  6.88426061e-02  2.32184421e-01  4.67941342e-01
  3.62312032e-01 -1.19332409e-01 -1.60854212e-01  1.14345648e+00  6.89990956e-02
  3.16423980e-01  7.44308252e-01  1.00000000e+00  1.00000000e+00  1.00000000e+00
  1.00000000e+00  1.00000000e+00  1.83470016e-03  1.40373012e-02  6.88426061e-02
  2.32184421e-01  4.67941342e-01  3.62312032e-01 -1.19332409e-01 -1.60854212e-01
  1.14345648e+00  6.89990956e-02  3.16423980e-01  7.44308252e-01  1.00000000e+00
  1.00000000e+00  1.00000000e+00  1.00000000e+00  1.00000000e+00  1.83470016e-03
  1.40373012e-02  6.88426061e-02  2.32184421e-01  4.67941342e-01  3.62312032e-01
 -1.19332409e-01 -1.60854212e-01  1.14345648e+00  6.89990956e-02  3.16423980e-01
  7.44308252e-01  1.00000000e+00  1.00000000e+00  1.00000000e+00  1.00000000e+00
  1.00000000e+00  3.34945995e-02  2.34726947e-01  8.13757318e-01  1.00000000e+00
  3.34945995e-02  2.34726947e-01  8.13757318e-01  1.00000000e+00  1.83479944e-03
  1.39949958e-02  6.85869792e-02  2.32240930e-01  4.69069858e-01  3.60454891e-01
 -1.14961023e-01 -1.69118034e-01  1.14585223e+00  6.75800232e-02  3.23907111e-01
  7.40895255e-01  1.00000000e+00  1.00000000e+00  1.00000000e+00  1.00000000e+00
  1.00000000e+00  1.83470016e-03  1.40373012e-02  6.88426061e-02  2.32184421e-01
  4.67941342e-01  3.62312032e-01 -1.19332409e-01 -1.60854212e-01  1.14345648e+00
  6.89990956e-02  3.16423980e-01  7.44308252e-01  1.00000000e+00  1.00000000e+00
  1.00000000e+00  1.00000000e+00  1.00000000e+00  1.83470016e-03  1.40373012e-02
  6.88426061e-02  2.32184421e-01  4.67941342e-01  3.62312032e-01 -1.19332409e-01
 -1.60854212e-01  1.14345648e+00  6.89990956e-02  3.16423980e-01  7.44308252e-01
  1.00000000e+00  1.00000000e+00  1.00000000e+00  1.00000000e+00  1.00000000e+00
  1.83470016e-03  1.40373012e-02  6.88426061e-02  2.32184421e-01  4.67941342e-01
  3.62312032e-01 -1.19332409e-01 -1.60854212e-01  1.14345648e+00  6.89990956e-02
  3.16423980e-01  7.44308252e-01  1.00000000e+00  1.00000000e+00  1.00000000e+00
  1.00000000e+00  1.00000000e+00  1.83470016e-03  1.40373012e-02  6.88426061e-02
  2.32184421e-01  4.67941342e-01  3.62312032e-01 -1.19332409e-01 -1.60854212e-01
  1.14345648e+00  6.89990956e-02  3.16423980e-01  7.44308252e-01  1.00000000e+00
  1.00000000e+00  1.00000000e+00  1.00000000e+00  1.00000000e+00  1.83470016e-03
  1.40373012e-02  6.88426061e-02  2.32184421e-01  4.67941342e-01  3.62312032e-01
 -1.19332409e-01 -1.60854212e-01  1.14345648e+00  6.89990956e-02  3.16423980e-01
  7.44308252e-01  1.00000000e+00  1.00000000e+00  1.00000000e+00  1.00000000e+00
  1.00000000e+00  1.83470016e-03  1.40373012e-02  6.88426061e-02  2.32184421e-01
  4.67941342e-01  3.62312032e-01 -1.19332409e-01 -1.60854212e-01  1.14345648e+00
  6.89990956e-02  3.16423980e-01  7.44308252e-01  1.00000000e+00  1.00000000e+00
  1.00000000e+00  1.00000000e+00  1.00000000e+00  3.34945995e-02  2.34726947e-01
  8.13757318e-01  1.00000000e+00  3.34945995e-02  2.34726947e-01  8.13757318e-01
  1.00000000e+00  1.83470016e-03  1.40373012e-02  6.88426061e-02  2.32184421e-01
  4.67941342e-01  3.62312032e-01 -1.19332409e-01 -1.60854212e-01  1.14345648e+00
  6.89990956e-02  3.16423980e-01  7.44308252e-01  1.00000000e+00  1.00000000e+00
  1.00000000e+00  1.00000000e+00  1.00000000e+00  3.34945995e-02  2.34726947e-01
  8.13757318e-01  1.00000000e+00  3.34945995e-02  2.34726947e-01  8.13757318e-01
  1.00000000e+00  3.34945995e-02  2.34726947e-01  8.13757318e-01  1.00000000e+00
  3.34945995e-02  2.34726947e-01  8.13757318e-01  1.00000000e+00  3.34945995e-02
  2.34726947e-01  8.13757318e-01  1.00000000e+00  3.34945995e-02  2.34726947e-01
  8.13757318e-01  1.00000000e+00  3.34945995e-02  2.34726947e-01  8.13757318e-01
  1.00000000e+00  3.34945995e-02  2.34726947e-01  8.13757318e-01  1.00000000e+00
  3.34945995e-02  2.34726947e-01  8.13757318e-01  1.00000000e+00  3.34945995e-02
  2.34726947e-01  8.13757318e-01  1.00000000e+00  1.81961690e-03  1.39160796e-02
  6.84053245e-02  2.33185760e-01  4.71267439e-01  3.56618546e-01 -1.08506975e-01
 -1.46451658e-01  1.12868858e+00  7.16287242e-02  3.45912103e-01  7.22469956e-01
  1.00000000e+00  1.00000000e+00  1.00000000e+00  1.00000000e+00  1.00000000e+00
Coordinates of each shell                  R   N=         372
  1.17045964e+00 -1.78288556e-01  9.99454084e-02  1.17045964e+00 -1.78288556e-01
  9.99454084e-02  1.17045964e+00 -1.78288556e-01  9.99454084e-02  1.17045964e+00
 -1.78288556e-01  9.99454084e-02  1.17045964e+00 -1.78288556e-01  9.99454084e-02
  1.17045964e+00 -1.78288556e-01  9.99454084e-02  1.17045964e+00 -1.78288556e-01
  9.99454084e-02  1.17045964e+00 -1.78288556e-01  9.99454084e-02 -2.49541396e-01
 -1.55815779e+00  2.16373757e+00 -2.49541396e-01 -1.55815779e+00  2.16373757e+00
 -2.49541396e-01 -1.55815779e+00  2.16373757e+00 -2.49541396e-01 -1.55815779e+00
  2.16373757e+00 -2.49541396e-01 -1.55815779e+00  2.16373757e+00 -2.49541396e-01
 -1.55815779e+00  2.16373757e+00 -2.49541396e-01 -1.55815779e+00  2.16373757e+00
 -2.49541396e-01 -1.55815779e+00  2.16373757e+00 -3.11327639e+00 -8.67710263e-01
  2.32922746e+00 -3.11327639e+00 -8.67710263e-01  2.32922746e+00 -3.11327639e+00
 -8.67710263e-01  2.32922746e+00 -3.11327639e+00 -8.67710263e-01  2.32922746e+00
 -3.11327639e+00 -8.67710263e-01  2.32922746e+00 -3.11327639e+00 -8.67710263e-01
  2.32922746e+00 -3.11327639e+00 -8.67710263e-01  2.32922746e+00 -3.11327639e+00
 -8.67710263e-01  2.32922746e+00  6.56220554e-01 -1.17832174e+00  3.98862829e+00
  6.56220554e-01 -1.17832174e+00  3.98862829e+00 -1.07894483e-01 -3.60512126e+00
  1.83936511e+00 -1.07894483e-01 -3.60512126e+00  1.83936511e+00 -4.58029224e+00
 -2.54942127e+00  3.98598202e+00 -4.58029224e+00 -2.54942127e+00  3.98598202e+00
 -4.58029224e+00 -2.54942127e+00  3.98598202e+00 -4.58029224e+00 -2.54942127e+00
  3.98598202e+00 -4.58029224e+00 -2.54942127e+00  3.98598202e+00 -4.58029224e+00
 -2.54942127e+00  3.98598202e+00 -4.58029224e+00 -2.54942127e+00  3.98598202e+00
 -4.58029224e+00 -2.54942127e+00  3.98598202e+00  2.81223418e+00  1.83029613e+00
  6.51701476e-01  2.81223418e+00  1.83029613e+00  6.51701476e-01  2.81223418e+00
  1.83029613e+00  6.51701476e-01  2.81223418e+00  1.83029613e+00  6.51701476e-01
  2.81223418e+00  1.83029613e+00  6.51701476e-01  2.81223418e+00  1.83029613e+00
  6.51701476e-01  2.81223418e+00  1.83029613e+00  6.51701476e-01  2.81223418e+00
  1.83029613e+00  6.51701476e-01  4.08215693e+00  3.11951017e+00 -1.27257433e+00
  4.08215693e+00  3.11951017e+00 -1.27257433e+00  4.08215693e+00  3.11951017e+00
 -1.27257433e+00  4.08215693e+00  3.11951017e+00 -1.27257433e+00  4.08215693e+00
  3.11951017e+00 -1.27257433e+00  4.08215693e+00  3.11951017e+00 -1.27257433e+00
  4.08215693e+00  3.11951017e+00 -1.27257433e+00  4.08215693e+00  3.11951017e+00
 -1.27257433e+00  3.74519159e+00  2.43544543e+00 -3.80045462e+00  3.74519159e+00
  2.43544543e+00 -3.80045462e+00  3.74519159e+00  2.43544543e+00 -3.80045462e+00
  3.74519159e+00  2.43544543e+00 -3.80045462e+00  3.74519159e+00  2.43544543e+00
 -3.80045462e+00  3.74519159e+00  2.43544543e+00 -3.80045462e+00  3.74519159e+00
  2.43544543e+00 -3.80045462e+00  3.74519159e+00  2.43544543e+00 -3.80045462e+00
  2.11745023e+00  4.40170037e-01 -4.31461845e+00  2.11745023e+00  4.40170037e-01
 -4.31461845e+00  2.11745023e+00  4.40170037e-01 -4.31461845e+00  2.11745023e+00
  4.40170037e-01 -4.31461845e+00  2.11745023e+00  4.40170037e-01 -4.31461845e+00
  2.11745023e+00  4.40170037e-01 -4.31461845e+00  2.11745023e+00  4.40170037e-01
 -4.31461845e+00  2.11745023e+00  4.40170037e-01 -4.31461845e+00  8.37213489e-01
 -8.74225002e-01 -2.43963473e+00  8.37213489e-01 -8.74225002e-01 -2.43963473e+00
  8.37213489e-01 -8.74225002e-01 -2.43963473e+00  8.37213489e-01 -8.74225002e-01
 -2.43963473e+00  8.37213489e-01 -8.74225002e-01 -2.43963473e+00  8.37213489e-01
 -8.74225002e-01 -2.43963473e+00  8.37213489e-01 -8.74225002e-01 -2.43963473e+00
  8.37213489e-01 -8.74225002e-01 -2.43963473e+00 -3.87662027e+00 -2.64948970e+00
  6.65677589e+00 -3.87662027e+00 -2.64948970e+00  6.65677589e+00 -3.87662027e+00
 -2.64948970e+00  6.65677589e+00 -3.87662027e+00 -2.64948970e+00  6.65677589e+00
 -3.87662027e+00 -2.64948970e+00  6.65677589e+00 -3.87662027e+00 -2.64948970e+00
  6.65677589e+00 -3.87662027e+00 -2.64948970e+00  6.65677589e+00 -3.87662027e+00
 -2.64948970e+00  6.65677589e+00 -4.57692883e+00 -4.32756596e+00  3.25299879e+00
 -4.57692883e+00 -4.32756596e+00  3.25299879e+00  5.34943962e+00  4.66633814e+00
 -8.03878281e-01  5.34943962e+00  4.66633814e+00 -8.03878281e-01 -3.52848591e+00
  1.90571805e+00  3.05445638e+00 -3.52848591e+00  1.90571805e+00  3.05445638e+00
 -3.52848591e+00  1.90571805e+00  3.05445638e+00 -3.52848591e+00  1.90571805e+00
  3.05445638e+00 -3.52848591e+00  1.90571805e+00  3.05445638e+00 -3.52848591e+00
  1.90571805e+00  3.05445638e+00 -3.52848591e+00  1.90571805e+00  3.05445638e+00
 -3.52848591e+00  1.90571805e+00  3.05445638e+00 -3.91788637e+00 -1.14129039e+00
  4.34932235e-01 -3.91788637e+00 -1.14129039e+00  4.34932235e-01 -2.65649243e+00
  2.36671595e+00  4.87793011e+00 -2.65649243e+00  2.36671595e+00  4.87793011e+00
 -5.55448960e+00  2.30554390e+00  3.18546812e+00 -5.55448960e+00  2.30554390e+00
  3.18546812e+00 -2.69822240e+00  3.16208676e+00  1.63625825e+00 -2.69822240e+00
  3.16208676e+00  1.63625825e+00  3.10266632e+00  2.38649243e+00  2.60815390e+00
  3.10266632e+00  2.38649243e+00  2.60815390e+00  4.71004719e+00  3.39875715e+00
 -5.33227410e+00  4.71004719e+00  3.39875715e+00 -5.33227410e+00 -4.19808004e+00
 -8.06973425e-01  7.54108562e+00 -4.19808004e+00 -8.06973425e-01  7.54108562e+00
 -1.90111329e+00 -3.20868484e+00  7.03172088e+00 -1.90111329e+00 -3.20868484e+00
  7.03172088e+00 -5.11279132e+00 -4.00963912e+00  7.60798630e+00 -5.11279132e+00
 -4.00963912e+00  7.60798630e+00 -3.93982490e-01 -2.43001401e+00 -2.96947802e+00
 -3.93982490e-01 -2.43001401e+00 -2.96947802e+00  1.76918356e+00 -2.68383669e-01
 -6.76534375e+00  1.76918356e+00 -2.68383669e-01 -6.76534375e+00  1.76918356e+00
 -2.68383669e-01 -6.76534375e+00  1.76918356e+00 -2.68383669e-01 -6.76534375e+00
  1.76918356e+00 -2.68383669e-01 -6.76534375e+00  1.76918356e+00 -2.68383669e-01
 -6.76534375e+00  1.76918356e+00 -2.68383669e-01 -6.76534375e+00  1.76918356e+00
 -2.68383669e-01 -6.76534375e+00
Total Energy                               R     -5.441007846342914e+02
Alpha Orbital Energies                     R   N=         256
 -2.47225699e+01 -1.43281371e+01 -1.02822776e+01 -1.02250462e+01 -1.02159127e+01
 -1.02097461e+01 -1.02081413e+01 -1.02054218e+01 -1.02044166e+01 -1.02006888e+01
 -1.01972146e+01 -1.01777359e+01 -1.22615700e+00 -9.08938110e-01 -8.72816305e-01
 -7.96395013e-01 -7.58703891e-01 -7.49157353e-01 -6.94951448e-01 -6.76881444e-01
 -6.25948716e-01 -6.11065526e-01 -5.72975762e-01 -5.39190666e-01 -5.09105516e-01
 -5.03196507e-01 -4.95834011e-01 -4.69097973e-01 -4.59002094e-01 -4.52727872e-01
 -4.46186266e-01 -4.24577718e-01 -4.14224620e-01 -4.10613287e-01 -3.98151238e-01
 -3.88968692e-01 -3.75042132e-01 -3.70626906e-01 -3.63879440e-01 -3.52082175e-01
 -3.45329439e-01 -3.38038044e-01 -2.64890034e-01 -2.55192525e-01 -2.23578021e-01
 -2.69489349e-02 -1.35843584e-02 -1.99871391e-03  7.49070700e-03  1.34161142e-02
  2.26285240e-02  2.85699885e-02  3.18974551e-02  4.19854243e-02  4.90779342e-02
  5.31322864e-02  5.51805360e-02  5.96551565e-02  7.39691622e-02  7.88621075e-02
  8.17410621e-02  8.65409985e-02  9.32069980e-02  9.84820234e-02  1.07395255e-01
  1.10487949e-01  1.13937507e-01  1.20760790e-01  1.25790185e-01  1.31049945e-01
  1.36351118e-01  1.39759997e-01  1.50237802e-01  1.53675338e-01  1.58684934e-01
  1.60314885e-01  1.68410130e-01  1.72759129e-01  1.80465744e-01  1.85725000e-01
  1.89806231e-01  1.94304666e-01  1.98672441e-01  2.02030428e-01  2.12311042e-01
  2.13939950e-01  2.19356757e-01  2.27718183e-01  2.28351266e-01  2.34910026e-01
  2.39948516e-01  2.44995825e-01  2.51239505e-01  2.54707327e-01  2.57908047e-01
  2.64091192e-01  2.65340218e-01  2.65677535e-01  2.76671919e-01  2.81613830e-01
  2.91930541e-01  2.96171476e-01  2.97953598e-01  3.01075099e-01  3.09310064e-01
  3.25390908e-01  3.29493030e-01  3.36554243e-01  3.39972235e-01  3.53900843e-01
  3.62793539e-01  3.72257806e-01  3.77630529e-01  3.84621917e-01  3.96716763e-01
  4.03405912e-01  4.09927298e-01  4.25435128e-01  4.54265913e-01  4.68246402e-01
  5.71367759e-01  5.96054691e-01  6.40976553e-01  6.49032063e-01  6.62761963e-01
  6.74159308e-01  6.79972486e-01  6.88680378e-01  6.93482741e-01  7.09927489e-01
  7.19992766e-01  7.21708201e-01  7.37917594e-01  7.46023512e-01  7.54008487e-01
  7.66334787e-01  7.69377836e-01  7.88479983e-01  8.05478100e-01  8.15373721e-01
  8.18501662e-01  8.39796734e-01  8.45433322e-01  8.80655372e-01  8.97269270e-01
  9.01088433e-01  9.21833684e-01  9.36578777e-01  9.49009086e-01  9.66365641e-01
  9.72369587e-01  9.89786415e-01  1.00625156e+00  1.01871008e+00  1.02465129e+00
  1.03646163e+00  1.04583117e+00  1.06763245e+00  1.07675494e+00  1.08416870e+00
  1.09330846e+00  1.10797016e+00  1.12059735e+00  1.13960297e+00  1.16080097e+00
  1.16873848e+00  1.18687542e+00  1.19714668e+00  1.21101180e+00  1.23766833e+00
  1.24733640e+00  1.25133035e+00  1.32184074e+00  1.33155208e+00  1.34243901e+00
  1.35527561e+00  1.40117028e+00  1.41708018e+00  1.43936351e+00  1.45918921e+00
  1.46644657e+00  1.48447997e+00  1.50934456e+00  1.53361825e+00  1.58770180e+00
  1.61034499e+00  1.64363311e+00  1.68638996e+00  1.72662686e+00  1.73644270e+00
  1.75114096e+00  1.78795245e+00  1.80887626e+00  1.81780355e+00  1.82712362e+00
  1.83583173e+00  1.85513637e+00  1.86314512e+00  1.89262707e+00  1.92074831e+00
  1.93807149e+00  1.94705821e+00  1.97355867e+00  1.98931702e+00  1.99706492e+00
  2.00267015e+00  2.04290101e+00  2.05975826e+00  2.09002797e+00  2.10378209e+00
  2.14041052e+00  2.15405457e+00  2.17277365e+00  2.18156322e+00  2.19070931e+00
  2.20815402e+00  2.23996821e+00  2.27125894e+00  2.29447220e+00  2.30005171e+00
  2.31832076e+00  2.34136003e+00  2.35173971e+00  2.36892145e+00  2.40381988e+00
  2.44197502e+00  2.48933750e+00  2.51755828e+00  2.55378606e+00  2.58178440e+00
  2.62848445e+00  2.64752105e+00  2.65563232e+00  2.71958071e+00  2.74583937e+00
  2.75736080e+00  2.76479579e+00  2.78077293e+00  2.84657015e+00  2.90468280e+00
  2.96621121e+00  3.14995038e+00  3.21226799e+00  3.43631054e+00  4.07278678e+00
  4.23536134e+00  4.25393382e+00  4.27181993e+00  4.31950743e+00  4.35046869e+00
  4.37647736e+00  4.42537244e+00  4.50021661e+00  4.63032684e+00  4.74084587e+00
  5.96431467e+00
Alpha MO coefficients                      R   N=       65536
 -1.13504073e-05 -5.47579962e-05  1.03303192e-05  8.80644282e-06 -1.20070907e-05
  1.75499969e-03  1.24931103e-04  6.35849574e-05 -8.00523754e-04 -1.05470921e-05
 -1.37749720e-05 -1.00030360e-05 -1.52445153e-06 -9.98949529e-06 -1.18480568e-05
  7.35431860e-03 -8.61644210e-04 -1.09295472e-03  1.82019792e-03  6.00943797e-06
  2.88806074e-05  2.01053911e-06  1.39359123e-06 -5.73757114e-06 -5.07572011e-05
  2.55907554e-05  4.57989691e-05  1.41496825e-04  9.86067899e-06  1.04109336e-05
 -3.64041097e-06  3.04441007e-06  8.65672254e-06  8.59705186e-06 -5.74369674e-03
 -1.09418689e-03 -7.08030682e-04  1.48764793e-03  6.18133142e-07 -4.60389262e-07
  3.60813062e-06  5.29325718e-06  3.43733775e-06  5.25222836e-05 -1.96158052e-05
 -6.11384306e-05 -6.65008843e-05  3.90521823e-06  2.37486169e-06  2.44800240e-06
  1.50519383e-06 -2.14289650e-06 -5.85284611e-07 -1.05860121e-03  1.67567370e-04
  5.68413725e-04 -5.01972061e-04 -7.82527477e-06 -2.18369189e-05  9.32112564e-06
  5.54099350e-05  2.76496775e-06  9.12941748e-06 -2.11518394e-06 -7.10928022e-07
 -3.48221475e-06 -6.93521545e-05  7.49331396e-06  6.31391594e-06  4.75626838e-05
  5.94569381e-06  5.84900682e-06  6.32222621e-06  2.54631667e-07  2.90491559e-06
  7.85982774e-07  6.06346632e-04  1.89308153e-05  6.15189963e-05 -1.99463784e-04
  9.95392473e-06  4.62782528e-05 -3.17807937e-06 -4.65243309e-06 -1.42852073e-05
 -7.81418839e-04  4.50851014e-05  1.17211369e-04  6.26602694e-04  1.43280429e-05
  1.24688398e-05  4.93942316e-06 -6.69853386e-06  7.18855834e-07 -9.81279693e-07
 -4.35482612e-03 -1.51523926e-04 -2.83145383e-05  6.32102428e-04 -8.32676141e-06
 -3.20847156e-05 -7.89485285e-06 -1.25600080e-05 -1.30910367e-05  1.56300115e-03
 -3.99178359e-04 -5.01829074e-04 -3.43184362e-04 -6.12984440e-06 -8.37241176e-06
 -2.67754309e-05 -4.03883959e-06  1.77380517e-06 -8.64023235e-07  5.76610616e-03
 -7.69632335e-04 -8.98187062e-04  3.34114048e-04  2.11083989e-05 -1.76098811e-05
 -2.96636194e-06  1.56018208e-06  4.67539408e-05 -1.93935014e-03  7.38735743e-04
  7.06348812e-04 -1.45350279e-03  4.70808031e-05  6.12343706e-05  1.07381074e-04
  1.94350821e-05  3.45772044e-05  5.16142561e-05 -5.87817932e-03  7.99223227e-04
  8.03180649e-04 -1.55186708e-03  3.33709985e-05  1.42532191e-05  8.85818001e-05