Generated by Psi4
     FORCE                           RHF                       TESTBAS
Number of atoms                            I               32
Charge                                     I                0
Multiplicity                               I                1
Number of electrons                        I              126
Number of alpha electrons                  I               63
Number of beta electrons                   I               63
Number of basis functions                  I              340
Number of independent functions            I              340
Atomic numbers                             I   N=          32
           6           6           6           6           6           6
           6           6           1           1           1           1
           8           7           6           1          17           6
           6           1           1           6           1           1
           6           1           1           1           1           1
           1           1
Nuclear charges                            R   N=          32
  6.00000000e+00  6.00000000e+00  6.00000000e+00  6.00000000e+00  6.00000000e+00
  6.00000000e+00  6.00000000e+00  6.00000000e+00  1.00000000e+00  1.00000000e+00
  1.00000000e+00  1.00000000e+00  8.00000000e+00  7.00000000e+00  6.00000000e+00
  1.00000000e+00  1.70000000e+01  6.00000000e+00  6.00000000e+00  1.00000000e+00
  1.00000000e+00  6.00000000e+00  1.00000000e+00  1.00000000e+00  6.00000000e+00
  1.00000000e+00  1.00000000e+00  1.00000000e+00  1.00000000e+00  1.00000000e+00
  1.00000000e+00  1.00000000e+00
Current cartesian coordinates              R   N=          96
 -1.17381284e+00 -3.02728805e+00 -9.73884477e-01  3.44248376e+00 -2.81521674e+00
 -1.18353490e-01  1.16617682e+00 -1.49488836e+00 -4.97180786e-01  5.70013507e+00
 -1.53580851e+00  3.04955611e-01  5.68446613e+00  1.10539523e+00  3.59406243e-01
 -3.67972063e+00 -1.80599884e+00 -1.83863604e+00  1.20332951e+00  1.15977015e+00
 -4.28107601e-01  3.45433353e+00  2.46498580e+00  2.02145395e-03  7.45322111e+00
 -2.56178252e+00  5.88256776e-01  3.40802247e+00 -4.86536291e+00 -1.68588477e-01
  3.47735631e+00  4.51488124e+00  6.49321310e-02 -5.49973173e-01  2.19585343e+00
 -6.55194869e-01 -1.09083932e+00 -5.33599278e+00 -8.17275945e-01 -4.52096368e+00
  2.37557865e-01 -1.70235005e-01 -3.41162378e+00 -9.49679572e-01 -4.60908929e+00
 -5.04834003e+00 -3.38601080e+00 -1.78490015e+00  8.52320551e+00  2.73855222e+00
  8.93032188e-01 -4.89050618e+00 -5.75443686e-01  2.46497079e+00 -6.30254647e+00
  1.64604558e+00  3.69655393e+00 -3.07441302e+00 -9.87512378e-01  3.36792622e+00
 -6.04627166e+00 -2.31921746e+00  2.54411908e+00 -7.72197446e+00  2.92656600e+00
  1.46364762e+00 -4.96494029e+00  2.96484492e+00  4.56399436e+00 -7.58204952e+00
  9.94615454e-01  5.18570940e+00 -6.95615553e+00  1.37531871e+00 -8.79471171e-01
 -7.13034626e+00  4.89814570e+00  1.25479456e+00 -9.77456660e+00  2.92383848e+00
  1.72250259e+00 -6.76870476e+00  2.53566805e+00 -2.57960448e+00 -8.38227021e+00
 -1.09439265e-01 -1.27230476e+00 -2.18489955e+00  7.06789033e-01 -4.78292802e+00
 -5.25959954e+00 -4.85468458e-01 -5.41374392e+00 -2.60803447e+00 -2.48226220e+00
 -5.74486781e+00
Integer atomic weights                     I   N=          32
          12          12          12          12          12          12
          12          12           1           1           1           1
          15          14          12           1          34          12
          12           1           1          12           1           1
          12           1           1           1           1           1
           1           1
Real atomic weights                        R   N=          32
  1.20000000e+01  1.20000000e+01  1.20000000e+01  1.20000000e+01  1.20000000e+01
  1.20000000e+01  1.20000000e+01  1.20000000e+01  1.00782503e+00  1.00782503e+00
  1.00782503e+00  1.00782503e+00  1.59949146e+01  1.40030740e+01  1.20000000e+01
  1.00782503e+00  3.49688527e+01  1.20000000e+01  1.20000000e+01  1.00782503e+00
  1.00782503e+00  1.20000000e+01  1.00782503e+00  1.00782503e+00  1.20000000e+01
  1.00782503e+00  1.00782503e+00  1.00782503e+00  1.00782503e+00  1.00782503e+00
  1.00782503e+00  1.00782503e+00
Number of primitive shells                 I              348
Number of contracted shells                I              162
Pure/Cartesian d shells                    I                1
Pure/Cartesian f shells                    I                1
Highest angular momentum                   I                2
Largest degree of contraction              I                6
Shell types                                I   N=         162
           0           0           1           0           1           2
           0           1           0           0           1           0
           1           2           0           1           0           0
           1           0           1           2           0           1
           0           0           1           0           1           2
           0           1           0           0           1           0
           1           2           0           1           0           0
           1           0           1           2           0           1
           0           0           1           0           1           2
           0           1           0           0           1           0
           1           2           0           1           0           0
           0           0           0           0           0           0
           0           0           1           0           1           2
           0           1           0           0           1           0
           1           2           0           1           0           0
           1           0           1           2           0           1
           0           0           0           0           1           0
           1           0           1           2           0           1
           0           0           1           0           1           2
           0           1           0           0           1           0
           1           2           0           1           0           0
           0           0           0           0           1           0
           1           2           0           1           0           0
           0           0           0           0           1           0
           1           2           0           1           0           0
           0           0           0           0           0           0
           0           0           0           0           0           0
Number of primitives per shell             I   N=         162
           6           3           3           1           1           1
           1           1           6           3           3           1
           1           1           1           1           6           3
           3           1           1           1           1           1
           6           3           3           1           1           1
           1           1           6           3           3           1
           1           1           1           1           6           3
           3           1           1           1           1           1
           6           3           3           1           1           1
           1           1           6           3           3           1
           1           1           1           1           3           1
           3           1           3           1           3           1
           6           3           3           1           1           1
           1           1           6           3           3           1
           1           1           1           1           6           3
           3           1           1           1           1           1
           3           1           6           6           6           3
           3           1           1           1           1           1
           6           3           3           1           1           1
           1           1           6           3           3           1
           1           1           1           1           3           1
           3           1           6           3           3           1
           1           1           1           1           3           1
           3           1           6           3           3           1
           1           1           1           1           3           1
           3           1           3           1           3           1
           3           1           3           1           3           1
Shell to atom map                          I   N=         162
           1           1           1           1           1           1
           1           1           2           2           2           2
           2           2           2           2           3           3
           3           3           3           3           3           3
           4           4           4           4           4           4
           4           4           5           5           5           5
           5           5           5           5           6           6
           6           6           6           6           6           6
           7           7           7           7           7           7
           7           7           8           8           8           8
           8           8           8           8           9           9
          10          10          11          11          12          12
          13          13          13          13          13          13
          13          13          14          14          14          14
          14          14          14          14          15          15
          15          15          15          15          15          15
          16          16          17          17          17          17
          17          17          17          17          17          17
          18          18          18          18          18          18
          18          18          19          19          19          19
          19          19          19          19          20          20
          21          21          22          22          22          22
          22          22          22          22          23          23
          24          24          25          25          25          25
          25          25          25          25          26          26
          27          27          28          28          29          29
          30          30          31          31          32          32
Primitive exponents                        R   N=         348
  3.04752490e+03  4.57369510e+02  1.03948690e+02  2.92101550e+01  9.28666300e+00
  3.16392700e+00  7.86827240e+00  1.88128850e+00  5.44249300e-01  7.86827240e+00
  1.88128850e+00  5.44249300e-01  1.68714400e-01  1.68714400e-01  8.00000000e-01
  4.38000000e-02  4.38000000e-02  3.04752490e+03  4.57369510e+02  1.03948690e+02
  2.92101550e+01  9.28666300e+00  3.16392700e+00  7.86827240e+00  1.88128850e+00
  5.44249300e-01  7.86827240e+00  1.88128850e+00  5.44249300e-01  1.68714400e-01
  1.68714400e-01  8.00000000e-01  4.38000000e-02  4.38000000e-02  3.04752490e+03
  4.57369510e+02  1.03948690e+02  2.92101550e+01  9.28666300e+00  3.16392700e+00
  7.86827240e+00  1.88128850e+00  5.44249300e-01  7.86827240e+00  1.88128850e+00
  5.44249300e-01  1.68714400e-01  1.68714400e-01  8.00000000e-01  4.38000000e-02
  4.38000000e-02  3.04752490e+03  4.57369510e+02  1.03948690e+02  2.92101550e+01
  9.28666300e+00  3.16392700e+00  7.86827240e+00  1.88128850e+00  5.44249300e-01
  7.86827240e+00  1.88128850e+00  5.44249300e-01  1.68714400e-01  1.68714400e-01
  8.00000000e-01  4.38000000e-02  4.38000000e-02  3.04752490e+03  4.57369510e+02
  1.03948690e+02  2.92101550e+01  9.28666300e+00  3.16392700e+00  7.86827240e+00
  1.88128850e+00  5.44249300e-01  7.86827240e+00  1.88128850e+00  5.44249300e-01
  1.68714400e-01  1.68714400e-01  8.00000000e-01  4.38000000e-02  4.38000000e-02
  3.04752490e+03  4.57369510e+02  1.03948690e+02  2.92101550e+01  9.28666300e+00
  3.16392700e+00  7.86827240e+00  1.88128850e+00  5.44249300e-01  7.86827240e+00
  1.88128850e+00  5.44249300e-01  1.68714400e-01  1.68714400e-01  8.00000000e-01
  4.38000000e-02  4.38000000e-02  3.04752490e+03  4.57369510e+02  1.03948690e+02
  2.92101550e+01  9.28666300e+00  3.16392700e+00  7.86827240e+00  1.88128850e+00
  5.44249300e-01  7.86827240e+00  1.88128850e+00  5.44249300e-01  1.68714400e-01
  1.68714400e-01  8.00000000e-01  4.38000000e-02  4.38000000e-02  3.04752490e+03
  4.57369510e+02  1.03948690e+02  2.92101550e+01  9.28666300e+00  3.16392700e+00
  7.86827240e+00  1.88128850e+00  5.44249300e-01  7.86827240e+00  1.88128850e+00
  5.44249300e-01  1.68714400e-01  1.68714400e-01  8.00000000e-01  4.38000000e-02
  4.38000000e-02  1.87311370e+01  2.82539370e+00  6.40121700e-01  1.61277800e-01
  1.87311370e+01  2.82539370e+00  6.40121700e-01  1.61277800e-01  1.87311370e+01
  2.82539370e+00  6.40121700e-01  1.61277800e-01  1.87311370e+01  2.82539370e+00
  6.40121700e-01  1.61277800e-01  5.48467170e+03  8.25234950e+02  1.88046960e+02
  5.29645000e+01  1.68975700e+01  5.79963530e+00  1.55396160e+01  3.59993360e+00
  1.01376180e+00  1.55396160e+01  3.59993360e+00  1.01376180e+00  2.70005800e-01
  2.70005800e-01  8.00000000e-01  8.45000000e-02  8.45000000e-02  4.17351100e+03
  6.27457900e+02  1.42902100e+02  4.02343300e+01  1.28202100e+01  4.39043700e+00
  1.16263580e+01  2.71628000e+00  7.72218000e-01  1.16263580e+01  2.71628000e+00
  7.72218000e-01  2.12031300e-01  2.12031300e-01  8.00000000e-01  6.39000000e-02
  6.39000000e-02  3.04752490e+03  4.57369510e+02  1.03948690e+02  2.92101550e+01
  9.28666300e+00  3.16392700e+00  7.86827240e+00  1.88128850e+00  5.44249300e-01
  7.86827240e+00  1.88128850e+00  5.44249300e-01  1.68714400e-01  1.68714400e-01
  8.00000000e-01  4.38000000e-02  4.38000000e-02  1.87311370e+01  2.82539370e+00
  6.40121700e-01  1.61277800e-01  2.51801000e+04  3.78035000e+03  8.60474000e+02
  2.42145000e+02  7.73349000e+01  2.62470000e+01  4.91765000e+02  1.16984000e+02
  3.74153000e+01  1.37834000e+01  5.45215000e+00  2.22588000e+00  4.91765000e+02
  1.16984000e+02  3.74153000e+01  1.37834000e+01  5.45215000e+00  2.22588000e+00
  3.18649000e+00  1.14427000e+00  4.20377000e-01  3.18649000e+00  1.14427000e+00
  4.20377000e-01  1.42657000e-01  1.42657000e-01  7.50000000e-01  4.83000000e-02
  4.83000000e-02  3.04752490e+03  4.57369510e+02  1.03948690e+02  2.92101550e+01
  9.28666300e+00  3.16392700e+00  7.86827240e+00  1.88128850e+00  5.44249300e-01
  7.86827240e+00  1.88128850e+00  5.44249300e-01  1.68714400e-01  1.68714400e-01
  8.00000000e-01  4.38000000e-02  4.38000000e-02  3.04752490e+03  4.57369510e+02
  1.03948690e+02  2.92101550e+01  9.28666300e+00  3.16392700e+00  7.86827240e+00
  1.88128850e+00  5.44249300e-01  7.86827240e+00  1.88128850e+00  5.44249300e-01
  1.68714400e-01  1.68714400e-01  8.00000000e-01  4.38000000e-02  4.38000000e-02
  1.87311370e+01  2.82539370e+00  6.40121700e-01  1.61277800e-01  1.87311370e+01
  2.82539370e+00  6.40121700e-01  1.61277800e-01  3.04752490e+03  4.57369510e+02
  1.03948690e+02  2.92101550e+01  9.28666300e+00  3.16392700e+00  7.86827240e+00
  1.88128850e+00  5.44249300e-01  7.86827240e+00  1.88128850e+00  5.44249300e-01
  1.68714400e-01  1.68714400e-01  8.00000000e-01  4.38000000e-02  4.38000000e-02
  1.87311370e+01  2.82539370e+00  6.40121700e-01  1.61277800e-01  1.87311370e+01
  2.82539370e+00  6.40121700e-01  1.61277800e-01  3.04752490e+03  4.57369510e+02
  1.03948690e+02  2.92101550e+01  9.28666300e+00  3.16392700e+00  7.86827240e+00
  1.88128850e+00  5.44249300e-01  7.86827240e+00  1.88128850e+00  5.44249300e-01
  1.68714400e-01  1.68714400e-01  8.00000000e-01  4.38000000e-02  4.38000000e-02
  1.87311370e+01  2.82539370e+00  6.40121700e-01  1.61277800e-01  1.87311370e+01
  2.82539370e+00  6.40121700e-01  1.61277800e-01  1.87311370e+01  2.82539370e+00
  6.40121700e-01  1.61277800e-01  1.87311370e+01  2.82539370e+00  6.40121700e-01
  1.61277800e-01  1.87311370e+01  2.82539370e+00  6.40121700e-01  1.61277800e-01
  1.87311370e+01  2.82539370e+00  6.40121700e-01  1.61277800e-01  1.87311370e+01
  2.82539370e+00  6.40121700e-01  1.61277800e-01
Contraction coefficients                   R   N=         348
  1.83470016e-03  1.40373012e-02  6.88426061e-02  2.32184421e-01  4.67941342e-01
  3.62312032e-01 -1.19332409e-01 -1.60854212e-01  1.14345648e+00  6.89990956e-02
  3.16423980e-01  7.44308252e-01  1.00000000e+00  1.00000000e+00  1.00000000e+00
  1.00000000e+00  1.00000000e+00  1.83470016e-03  1.40373012e-02  6.88426061e-02
  2.32184421e-01  4.67941342e-01  3.62312032e-01 -1.19332409e-01 -1.60854212e-01
  1.14345648e+00  6.89990956e-02  3.16423980e-01  7.44308252e-01  1.00000000e+00
  1.00000000e+00  1.00000000e+00  1.00000000e+00  1.00000000e+00  1.83470016e-03
  1.40373012e-02  6.88426061e-02  2.32184421e-01  4.67941342e-01  3.62312032e-01
 -1.19332409e-01 -1.60854212e-01  1.14345648e+00  6.89990956e-02  3.16423980e-01
  7.44308252e-01  1.00000000e+00  1.00000000e+00  1.00000000e+00  1.00000000e+00
  1.00000000e+00  1.83470016e-03  1.40373012e-02  6.88426061e-02  2.32184421e-01
  4.67941342e-01  3.62312032e-01 -1.19332409e-01 -1.60854212e-01  1.14345648e+00
  6.89990956e-02  3.16423980e-01  7.44308252e-01  1.00000000e+00  1.00000000e+00
  1.00000000e+00  1.00000000e+00  1.00000000e+00  1.83470016e-03  1.40373012e-02
  6.88426061e-02  2.32184421e-01  4.67941342e-01  3.62312032e-01 -1.19332409e-01
 -1.60854212e-01  1.14345648e+00  6.89990956e-02  3.16423980e-01  7.44308252e-01
  1.00000000e+00  1.00000000e+00  1.00000000e+00  1.00000000e+00  1.00000000e+00
  1.83470016e-03  1.40373012e-02  6.88426061e-02  2.32184421e-01  4.67941342e-01
  3.62312032e-01 -1.19332409e-01 -1.60854212e-01  1.14345648e+00  6.89990956e-02
  3.16423980e-01  7.44308252e-01  1.00000000e+00  1.00000000e+00  1.00000000e+00
  1.00000000e+00  1.00000000e+00  1.83470016e-03  1.40373012e-02  6.88426061e-02
  2.32184421e-01  4.67941342e-01  3.62312032e-01 -1.19332409e-01 -1.60854212e-01
  1.14345648e+00  6.89990956e-02  3.16423980e-01  7.44308252e-01  1.00000000e+00
  1.00000000e+00  1.00000000e+00  1.00000000e+00  1.00000000e+00  1.83470016e-03
  1.40373012e-02  6.88426061e-02  2.32184421e-01  4.67941342e-01  3.62312032e-01
 -1.19332409e-01 -1.60854212e-01  1.14345648e+00  6.89990956e-02  3.16423980e-01
  7.44308252e-01  1.00000000e+00  1.00000000e+00  1.00000000e+00  1.00000000e+00
  1.00000000e+00  3.34945995e-02  2.34726947e-01  8.13757318e-01  1.00000000e+00
  3.34945995e-02  2.34726947e-01  8.13757318e-01  1.00000000e+00  3.34945995e-02
  2.34726947e-01  8.13757318e-01  1.00000000e+00  3.34945995e-02  2.34726947e-01
  8.13757318e-01  1.00000000e+00  1.83109981e-03  1.39500985e-02  6.84450927e-02
  2.32714275e-01  4.70192950e-01  3.58520862e-01 -1.10777504e-01 -1.48026305e-01
  1.13076704e+00  7.08742995e-02  3.39752798e-01  7.27158595e-01  1.00000000e+00
  1.00000000e+00  1.00000000e+00  1.00000000e+00  1.00000000e+00  1.83479944e-03
  1.39949958e-02  6.85869792e-02  2.32240930e-01  4.69069858e-01  3.60454891e-01
 -1.14961023e-01 -1.69118034e-01  1.14585223e+00  6.75800232e-02  3.23907111e-01
  7.40895255e-01  1.00000000e+00  1.00000000e+00  1.00000000e+00  1.00000000e+00
  1.00000000e+00  1.83470016e-03  1.40373012e-02  6.88426061e-02  2.32184421e-01
  4.67941342e-01  3.62312032e-01 -1.19332409e-01 -1.60854212e-01  1.14345648e+00
  6.89990956e-02  3.16423980e-01  7.44308252e-01  1.00000000e+00  1.00000000e+00
  1.00000000e+00  1.00000000e+00  1.00000000e+00  3.34945995e-02  2.34726947e-01
  8.13757318e-01  1.00000000e+00  1.83300031e-03  1.40340024e-02  6.90970118e-02
  2.37452040e-01  4.83034082e-01  3.39856058e-01 -2.29740199e-03 -3.07140266e-02
 -1.12528097e-01  4.50160390e-02  5.89353510e-01  4.65206403e-01  3.98940055e-03
  3.03180042e-02  1.29880018e-01  3.27951045e-01  4.53527062e-01  2.52154035e-01
 -2.51831288e-01  6.15893150e-02  1.06018542e+00 -1.42990127e-02  3.23572288e-01
  7.43507661e-01  1.00000000e+00  1.00000000e+00  1.00000000e+00  1.00000000e+00
  1.00000000e+00  1.83470016e-03  1.40373012e-02  6.88426061e-02  2.32184421e-01
  4.67941342e-01  3.62312032e-01 -1.19332409e-01 -1.60854212e-01  1.14345648e+00
  6.89990956e-02  3.16423980e-01  7.44308252e-01  1.00000000e+00  1.00000000e+00
  1.00000000e+00  1.00000000e+00  1.00000000e+00  1.83470016e-03  1.40373012e-02
  6.88426061e-02  2.32184421e-01  4.67941342e-01  3.62312032e-01 -1.19332409e-01
 -1.60854212e-01  1.14345648e+00  6.89990956e-02  3.16423980e-01  7.44308252e-01
  1.00000000e+00  1.00000000e+00  1.00000000e+00  1.00000000e+00  1.00000000e+00
  3.34945995e-02  2.34726947e-01  8.13757318e-01  1.00000000e+00  3.34945995e-02
  2.34726947e-01  8.13757318e-01  1.00000000e+00  1.83470016e-03  1.40373012e-02
  6.88426061e-02  2.32184421e-01  4.67941342e-01  3.62312032e-01 -1.19332409e-01
 -1.60854212e-01  1.14345648e+00  6.89990956e-02  3.16423980e-01  7.44308252e-01
  1.00000000e+00  1.00000000e+00  1.00000000e+00  1.00000000e+00  1.00000000e+00
  3.34945995e-02  2.34726947e-01  8.13757318e-01  1.00000000e+00  3.34945995e-02
  2.34726947e-01  8.13757318e-01  1.00000000e+00  1.83470016e-03  1.40373012e-02
  6.88426061e-02  2.32184421e-01  4.67941342e-01  3.62312032e-01 -1.19332409e-01
 -1.60854212e-01  1.14345648e+00  6.89990956e-02  3.16423980e-01  7.44308252e-01
  1.00000000e+00  1.00000000e+00  1.00000000e+00  1.00000000e+00  1.00000000e+00
  3.34945995e-02  2.34726947e-01  8.13757318e-01  1.00000000e+00  3.34945995e-02
  2.34726947e-01  8.13757318e-01  1.00000000e+00  3.34945995e-02  2.34726947e-01
  8.13757318e-01  1.00000000e+00  3.34945995e-02  2.34726947e-01  8.13757318e-01
  1.00000000e+00  3.34945995e-02  2.34726947e-01  8.13757318e-01  1.00000000e+00
  3.34945995e-02  2.34726947e-01  8.13757318e-01  1.00000000e+00  3.34945995e-02
  2.34726947e-01  8.13757318e-01  1.00000000e+00
Coordinates of each shell                  R   N=         486
 -1.17381284e+00 -3.02728805e+00 -9.73884477e-01 -1.17381284e+00 -3.02728805e+00
 -9.73884477e-01 -1.17381284e+00 -3.02728805e+00 -9.73884477e-01 -1.17381284e+00
 -3.02728805e+00 -9.73884477e-01 -1.17381284e+00 -3.02728805e+00 -9.73884477e-01
 -1.17381284e+00 -3.02728805e+00 -9.73884477e-01 -1.17381284e+00 -3.02728805e+00
 -9.73884477e-01 -1.17381284e+00 -3.02728805e+00 -9.73884477e-01  3.44248376e+00
 -2.81521674e+00 -1.18353490e-01  3.44248376e+00 -2.81521674e+00 -1.18353490e-01
  3.44248376e+00 -2.81521674e+00 -1.18353490e-01  3.44248376e+00 -2.81521674e+00
 -1.18353490e-01  3.44248376e+00 -2.81521674e+00 -1.18353490e-01  3.44248376e+00
 -2.81521674e+00 -1.18353490e-01  3.44248376e+00 -2.81521674e+00 -1.18353490e-01
  3.44248376e+00 -2.81521674e+00 -1.18353490e-01  1.16617682e+00 -1.49488836e+00
 -4.97180786e-01  1.16617682e+00 -1.49488836e+00 -4.97180786e-01  1.16617682e+00
 -1.49488836e+00 -4.97180786e-01  1.16617682e+00 -1.49488836e+00 -4.97180786e-01
  1.16617682e+00 -1.49488836e+00 -4.97180786e-01  1.16617682e+00 -1.49488836e+00
 -4.97180786e-01  1.16617682e+00 -1.49488836e+00 -4.97180786e-01  1.16617682e+00
 -1.49488836e+00 -4.97180786e-01  5.70013507e+00 -1.53580851e+00  3.04955611e-01
  5.70013507e+00 -1.53580851e+00  3.04955611e-01  5.70013507e+00 -1.53580851e+00
  3.04955611e-01  5.70013507e+00 -1.53580851e+00  3.04955611e-01  5.70013507e+00
 -1.53580851e+00  3.04955611e-01  5.70013507e+00 -1.53580851e+00  3.04955611e-01
  5.70013507e+00 -1.53580851e+00  3.04955611e-01  5.70013507e+00 -1.53580851e+00
  3.04955611e-01  5.68446613e+00  1.10539523e+00  3.59406243e-01  5.68446613e+00
  1.10539523e+00  3.59406243e-01  5.68446613e+00  1.10539523e+00  3.59406243e-01
  5.68446613e+00  1.10539523e+00  3.59406243e-01  5.68446613e+00  1.10539523e+00
  3.59406243e-01  5.68446613e+00  1.10539523e+00  3.59406243e-01  5.68446613e+00
  1.10539523e+00  3.59406243e-01  5.68446613e+00  1.10539523e+00  3.59406243e-01
 -3.67972063e+00 -1.80599884e+00 -1.83863604e+00 -3.67972063e+00 -1.80599884e+00
 -1.83863604e+00 -3.67972063e+00 -1.80599884e+00 -1.83863604e+00 -3.67972063e+00
 -1.80599884e+00 -1.83863604e+00 -3.67972063e+00 -1.80599884e+00 -1.83863604e+00
 -3.67972063e+00 -1.80599884e+00 -1.83863604e+00 -3.67972063e+00 -1.80599884e+00
 -1.83863604e+00 -3.67972063e+00 -1.80599884e+00 -1.83863604e+00  1.20332951e+00
  1.15977015e+00 -4.28107601e-01  1.20332951e+00  1.15977015e+00 -4.28107601e-01
  1.20332951e+00  1.15977015e+00 -4.28107601e-01  1.20332951e+00  1.15977015e+00
 -4.28107601e-01  1.20332951e+00  1.15977015e+00 -4.28107601e-01  1.20332951e+00
  1.15977015e+00 -4.28107601e-01  1.20332951e+00  1.15977015e+00 -4.28107601e-01
  1.20332951e+00  1.15977015e+00 -4.28107601e-01  3.45433353e+00  2.46498580e+00
  2.02145395e-03  3.45433353e+00  2.46498580e+00  2.02145395e-03  3.45433353e+00
  2.46498580e+00  2.02145395e-03  3.45433353e+00  2.46498580e+00  2.02145395e-03
  3.45433353e+00  2.46498580e+00  2.02145395e-03  3.45433353e+00  2.46498580e+00
  2.02145395e-03  3.45433353e+00  2.46498580e+00  2.02145395e-03  3.45433353e+00
  2.46498580e+00  2.02145395e-03  7.45322111e+00 -2.56178252e+00  5.88256776e-01
  7.45322111e+00 -2.56178252e+00  5.88256776e-01  3.40802247e+00 -4.86536291e+00
 -1.68588477e-01  3.40802247e+00 -4.86536291e+00 -1.68588477e-01  3.47735631e+00
  4.51488124e+00  6.49321310e-02  3.47735631e+00  4.51488124e+00  6.49321310e-02
 -5.49973173e-01  2.19585343e+00 -6.55194869e-01 -5.49973173e-01  2.19585343e+00
 -6.55194869e-01 -1.09083932e+00 -5.33599278e+00 -8.17275945e-01 -1.09083932e+00
 -5.33599278e+00 -8.17275945e-01 -1.09083932e+00 -5.33599278e+00 -8.17275945e-01
 -1.09083932e+00 -5.33599278e+00 -8.17275945e-01 -1.09083932e+00 -5.33599278e+00
 -8.17275945e-01 -1.09083932e+00 -5.33599278e+00 -8.17275945e-01 -1.09083932e+00
 -5.33599278e+00 -8.17275945e-01 -1.09083932e+00 -5.33599278e+00 -8.17275945e-01
 -4.52096368e+00  2.37557865e-01 -1.70235005e-01 -4.52096368e+00  2.37557865e-01
 -1.70235005e-01 -4.52096368e+00  2.37557865e-01 -1.70235005e-01 -4.52096368e+00
  2.37557865e-01 -1.70235005e-01 -4.52096368e+00  2.37557865e-01 -1.70235005e-01
 -4.52096368e+00  2.37557865e-01 -1.70235005e-01 -4.52096368e+00  2.37557865e-01
 -1.70235005e-01 -4.52096368e+00  2.37557865e-01 -1.70235005e-01 -3.41162378e+00
 -9.49679572e-01 -4.60908929e+00 -3.41162378e+00 -9.49679572e-01 -4.60908929e+00
 -3.41162378e+00 -9.49679572e-01 -4.60908929e+00 -3.41162378e+00 -9.49679572e-01
 -4.60908929e+00 -3.41162378e+00 -9.49679572e-01 -4.60908929e+00 -3.41162378e+00
 -9.49679572e-01 -4.60908929e+00 -3.41162378e+00 -9.49679572e-01 -4.60908929e+00
 -3.41162378e+00 -9.49679572e-01 -4.60908929e+00 -5.04834003e+00 -3.38601080e+00
 -1.78490015e+00 -5.04834003e+00 -3.38601080e+00 -1.78490015e+00  8.52320551e+00
  2.73855222e+00  8.93032188e-01  8.52320551e+00  2.73855222e+00  8.93032188e-01
  8.52320551e+00  2.73855222e+00  8.93032188e-01  8.52320551e+00  2.73855222e+00
  8.93032188e-01  8.52320551e+00  2.73855222e+00  8.93032188e-01  8.52320551e+00
  2.73855222e+00  8.93032188e-01  8.52320551e+00  2.73855222e+00  8.93032188e-01
  8.52320551e+00  2.73855222e+00  8.93032188e-01  8.52320551e+00  2.73855222e+00
  8.93032188e-01  8.52320551e+00  2.73855222e+00  8.93032188e-01 -4.89050618e+00
 -5.75443686e-01  2.46497079e+00 -4.89050618e+00 -5.75443686e-01  2.46497079e+00
 -4.89050618e+00 -5.75443686e-01  2.46497079e+00 -4.89050618e+00 -5.75443686e-01
  2.46497079e+00 -4.89050618e+00 -5.75443686e-01  2.46497079e+00 -4.89050618e+00
 -5.75443686e-01  2.46497079e+00 -4.89050618e+00 -5.75443686e-01  2.46497079e+00
 -4.89050618e+00 -5.75443686e-01  2.46497079e+00 -6.30254647e+00  1.64604558e+00
  3.69655393e+00 -6.30254647e+00  1.64604558e+00  3.69655393e+00 -6.30254647e+00
  1.64604558e+00  3.69655393e+00 -6.30254647e+00  1.64604558e+00  3.69655393e+00
 -6.30254647e+00  1.64604558e+00  3.69655393e+00 -6.30254647e+00  1.64604558e+00
  3.69655393e+00 -6.30254647e+00  1.64604558e+00  3.69655393e+00 -6.30254647e+00
  1.64604558e+00  3.69655393e+00 -3.07441302e+00 -9.87512378e-01  3.36792622e+00
 -3.07441302e+00 -9.87512378e-01  3.36792622e+00 -6.04627166e+00 -2.31921746e+00
  2.54411908e+00 -6.04627166e+00 -2.31921746e+00  2.54411908e+00 -7.72197446e+00
  2.92656600e+00  1.46364762e+00 -7.72197446e+00  2.92656600e+00  1.46364762e+00
 -7.72197446e+00  2.92656600e+00  1.46364762e+00 -7.72197446e+00  2.92656600e+00
  1.46364762e+00 -7.72197446e+00  2.92656600e+00  1.46364762e+00 -7.72197446e+00
  2.92656600e+00  1.46364762e+00 -7.72197446e+00  2.92656600e+00  1.46364762e+00
 -7.72197446e+00  2.92656600e+00  1.46364762e+00 -4.96494029e+00  2.96484492e+00
  4.56399436e+00 -4.96494029e+00  2.96484492e+00  4.56399436e+00 -7.58204952e+00
  9.94615454e-01  5.18570940e+00 -7.58204952e+00  9.94615454e-01  5.18570940e+00
 -6.95615553e+00  1.37531871e+00 -8.79471171e-01 -6.95615553e+00  1.37531871e+00
 -8.79471171e-01 -6.95615553e+00  1.37531871e+00 -8.79471171e-01 -6.95615553e+00
  1.37531871e+00 -8.79471171e-01 -6.95615553e+00  1.37531871e+00 -8.79471171e-01
 -6.95615553e+00  1.37531871e+00 -8.79471171e-01 -6.95615553e+00  1.37531871e+00
 -8.79471171e-01 -6.95615553e+00  1.37531871e+00 -8.79471171e-01 -7.13034626e+00
  4.89814570e+00  1.25479456e+00 -7.13034626e+00  4.89814570e+00  1.25479456e+00
 -9.77456660e+00  2.92383848e+00  1.72250259e+00 -9.77456660e+00  2.92383848e+00
  1.72250259e+00 -6.76870476e+00  2.53566805e+00 -2.57960448e+00 -6.76870476e+00
  2.53566805e+00 -2.57960448e+00 -8.38227021e+00 -1.09439265e-01 -1.27230476e+00
 -8.38227021e+00 -1.09439265e-01 -1.27230476e+00 -2.18489955e+00  7.06789033e-01
 -4.78292802e+00 -2.18489955e+00  7.06789033e-01 -4.78292802e+00 -5.25959954e+00
 -4.85468458e-01 -5.41374392e+00 -5.25959954e+00 -4.85468458e-01 -5.41374392e+00