Generated by Psi4
     FORCE                           RHF                       TESTBAS
Number of atoms                            I               29
Charge                                     I                0
Multiplicity                               I                1
Number of electrons                        I              104
Number of alpha electrons                  I               52
Number of beta electrons                   I               52
Number of basis functions                  I              296
Number of independent functions            I              296
Atomic numbers                             I   N=          29
           6           6           6           7           6           6
           6           6           6           1           1           6
           1           6           1           8           1           1
           1           1           1           1           1           1
           8           6           1           1           1
Nuclear charges                            R   N=          29
  6.00000000e+00  6.00000000e+00  6.00000000e+00  7.00000000e+00  6.00000000e+00
  6.00000000e+00  6.00000000e+00  6.00000000e+00  6.00000000e+00  1.00000000e+00
  1.00000000e+00  6.00000000e+00  1.00000000e+00  6.00000000e+00  1.00000000e+00
  8.00000000e+00  1.00000000e+00  1.00000000e+00  1.00000000e+00  1.00000000e+00
  1.00000000e+00  1.00000000e+00  1.00000000e+00  1.00000000e+00  8.00000000e+00
  6.00000000e+00  1.00000000e+00  1.00000000e+00  1.00000000e+00
Current cartesian coordinates              R   N=          87
 -7.11346775e-01  4.16831076e-01 -4.39135490e-01 -2.96557601e+00  1.94795635e+00
  2.91705100e-01 -3.18112968e+00  3.30289263e+00  2.87299830e+00 -2.54226192e+00
  1.69677479e+00  5.03691152e+00  1.33729090e+00 -1.14502065e-01  1.18330927e+00
  3.39003586e+00 -1.51609379e+00  3.42513314e-01  3.45787250e+00 -2.43054054e+00
 -2.14778215e+00  1.43347322e+00 -1.92770501e+00 -3.78918473e+00 -6.13862571e-01
 -5.19902141e-01 -2.92260085e+00  1.27278007e+00  5.33827916e-01  3.12459088e+00
  4.96701739e+00 -1.93703304e+00  1.58667925e+00 -1.52309711e+00  5.69010087e+00
  2.87093938e+00 -5.17820102e+00  3.90334144e+00  2.93464543e+00 -4.34182619e+00
 -3.57163758e-01  5.47840471e+00 -2.43429286e+00  2.80417881e+00  6.60756236e+00
 -4.69401980e+00  2.28460572e+00 -1.22102228e+00  1.43931064e+00 -2.61370730e+00
 -5.72000146e+00 -2.18430501e+00 -1.14899098e-01 -4.17878912e+00  4.88908451e-01
  5.22037601e+00  2.76788376e+00 -1.84980307e+00  6.78131256e+00  4.60489740e+00
 -2.00329002e+00  6.90203297e+00  1.26436516e+00 -4.23058813e+00 -1.72682283e+00
  3.92939657e+00 -6.32327190e+00  2.85178601e-01  5.62160961e+00 -3.83482645e+00
 -1.34180812e+00  7.22576294e+00  5.55107674e+00 -3.78102498e+00 -2.79032233e+00
  5.74254458e+00 -4.77601843e+00 -5.28340995e+00  5.73528972e+00 -3.26070919e+00
 -6.69895959e+00  4.20425631e+00 -6.10878834e+00 -5.68006930e+00  7.54804730e+00
 -5.76954047e+00 -5.34801274e+00
Integer atomic weights                     I   N=          29
          12          12          12          14          12          12
          12          12          12           1           1          12
           1          12           1          15           1           1
           1           1           1           1           1           1
          15          12           1           1           1
Real atomic weights                        R   N=          29
  1.20000000e+01  1.20000000e+01  1.20000000e+01  1.40030740e+01  1.20000000e+01
  1.20000000e+01  1.20000000e+01  1.20000000e+01  1.20000000e+01  1.00782503e+00
  1.00782503e+00  1.20000000e+01  1.00782503e+00  1.20000000e+01  1.00782503e+00
  1.59949146e+01  1.00782503e+00  1.00782503e+00  1.00782503e+00  1.00782503e+00
  1.00782503e+00  1.00782503e+00  1.00782503e+00  1.00782503e+00  1.59949146e+01
  1.20000000e+01  1.00782503e+00  1.00782503e+00  1.00782503e+00
Number of primitive shells                 I              298
Number of contracted shells                I              142
Pure/Cartesian d shells                    I                1
Pure/Cartesian f shells                    I                1
Highest angular momentum                   I                2
Largest degree of contraction              I                6
Shell types                                I   N=         142
           0           0           1           0           1           2
           0           1           0           0           1           0
           1           2           0           1           0           0
           1           0           1           2           0           1
           0           0           1           0           1           2
           0           1           0           0           1           0
           1           2           0           1           0           0
           1           0           1           2           0           1
           0           0           1           0           1           2
           0           1           0           0           1           0
           1           2           0           1           0           0
           1           0           1           2           0           1
           0           0           0           0           0           0
           1           0           1           2           0           1
           0           0           0           0           1           0
           1           2           0           1           0           0
           0           0           1           0           1           2
           0           1           0           0           0           0
           0           0           0           0           0           0
           0           0           0           0           0           0
           0           0           1           0           1           2
           0           1           0           0           1           0
           1           2           0           1           0           0
           0           0           0           0
Number of primitives per shell             I   N=         142
           6           3           3           1           1           1
           1           1           6           3           3           1
           1           1           1           1           6           3
           3           1           1           1           1           1
           6           3           3           1           1           1
           1           1           6           3           3           1
           1           1           1           1           6           3
           3           1           1           1           1           1
           6           3           3           1           1           1
           1           1           6           3           3           1
           1           1           1           1           6           3
           3           1           1           1           1           1
           3           1           3           1           6           3
           3           1           1           1           1           1
           3           1           6           3           3           1
           1           1           1           1           3           1
           6           3           3           1           1           1
           1           1           3           1           3           1
           3           1           3           1           3           1
           3           1           3           1           3           1
           6           3           3           1           1           1
           1           1           6           3           3           1
           1           1           1           1           3           1
           3           1           3           1
Shell to atom map                          I   N=         142
           1           1           1           1           1           1
           1           1           2           2           2           2
           2           2           2           2           3           3
           3           3           3           3           3           3
           4           4           4           4           4           4
           4           4           5           5           5           5
           5           5           5           5           6           6
           6           6           6           6           6           6
           7           7           7           7           7           7
           7           7           8           8           8           8
           8           8           8           8           9           9
           9           9           9           9           9           9
          10          10          11          11          12          12
          12          12          12          12          12          12
          13          13          14          14          14          14
          14          14          14          14          15          15
          16          16          16          16          16          16
          16          16          17          17          18          18
          19          19          20          20          21          21
          22          22          23          23          24          24
          25          25          25          25          25          25
          25          25          26          26          26          26
          26          26          26          26          27          27
          28          28          29          29
Primitive exponents                        R   N=         298
  3.04752490e+03  4.57369510e+02  1.03948690e+02  2.92101550e+01  9.28666300e+00
  3.16392700e+00  7.86827240e+00  1.88128850e+00  5.44249300e-01  7.86827240e+00
  1.88128850e+00  5.44249300e-01  1.68714400e-01  1.68714400e-01  8.00000000e-01
  4.38000000e-02  4.38000000e-02  3.04752490e+03  4.57369510e+02  1.03948690e+02
  2.92101550e+01  9.28666300e+00  3.16392700e+00  7.86827240e+00  1.88128850e+00
  5.44249300e-01  7.86827240e+00  1.88128850e+00  5.44249300e-01  1.68714400e-01
  1.68714400e-01  8.00000000e-01  4.38000000e-02  4.38000000e-02  3.04752490e+03
  4.57369510e+02  1.03948690e+02  2.92101550e+01  9.28666300e+00  3.16392700e+00
  7.86827240e+00  1.88128850e+00  5.44249300e-01  7.86827240e+00  1.88128850e+00
  5.44249300e-01  1.68714400e-01  1.68714400e-01  8.00000000e-01  4.38000000e-02
  4.38000000e-02  4.17351100e+03  6.27457900e+02  1.42902100e+02  4.02343300e+01
  1.28202100e+01  4.39043700e+00  1.16263580e+01  2.71628000e+00  7.72218000e-01
  1.16263580e+01  2.71628000e+00  7.72218000e-01  2.12031300e-01  2.12031300e-01
  8.00000000e-01  6.39000000e-02  6.39000000e-02  3.04752490e+03  4.57369510e+02
  1.03948690e+02  2.92101550e+01  9.28666300e+00  3.16392700e+00  7.86827240e+00
  1.88128850e+00  5.44249300e-01  7.86827240e+00  1.88128850e+00  5.44249300e-01
  1.68714400e-01  1.68714400e-01  8.00000000e-01  4.38000000e-02  4.38000000e-02
  3.04752490e+03  4.57369510e+02  1.03948690e+02  2.92101550e+01  9.28666300e+00
  3.16392700e+00  7.86827240e+00  1.88128850e+00  5.44249300e-01  7.86827240e+00
  1.88128850e+00  5.44249300e-01  1.68714400e-01  1.68714400e-01  8.00000000e-01
  4.38000000e-02  4.38000000e-02  3.04752490e+03  4.57369510e+02  1.03948690e+02
  2.92101550e+01  9.28666300e+00  3.16392700e+00  7.86827240e+00  1.88128850e+00
  5.44249300e-01  7.86827240e+00  1.88128850e+00  5.44249300e-01  1.68714400e-01
  1.68714400e-01  8.00000000e-01  4.38000000e-02  4.38000000e-02  3.04752490e+03
  4.57369510e+02  1.03948690e+02  2.92101550e+01  9.28666300e+00  3.16392700e+00
  7.86827240e+00  1.88128850e+00  5.44249300e-01  7.86827240e+00  1.88128850e+00
  5.44249300e-01  1.68714400e-01  1.68714400e-01  8.00000000e-01  4.38000000e-02
  4.38000000e-02  3.04752490e+03  4.57369510e+02  1.03948690e+02  2.92101550e+01
  9.28666300e+00  3.16392700e+00  7.86827240e+00  1.88128850e+00  5.44249300e-01
  7.86827240e+00  1.88128850e+00  5.44249300e-01  1.68714400e-01  1.68714400e-01
  8.00000000e-01  4.38000000e-02  4.38000000e-02  1.87311370e+01  2.82539370e+00
  6.40121700e-01  1.61277800e-01  1.87311370e+01  2.82539370e+00  6.40121700e-01
  1.61277800e-01  3.04752490e+03  4.57369510e+02  1.03948690e+02  2.92101550e+01
  9.28666300e+00  3.16392700e+00  7.86827240e+00  1.88128850e+00  5.44249300e-01
  7.86827240e+00  1.88128850e+00  5.44249300e-01  1.68714400e-01  1.68714400e-01
  8.00000000e-01  4.38000000e-02  4.38000000e-02  1.87311370e+01  2.82539370e+00
  6.40121700e-01  1.61277800e-01  3.04752490e+03  4.57369510e+02  1.03948690e+02
  2.92101550e+01  9.28666300e+00  3.16392700e+00  7.86827240e+00  1.88128850e+00
  5.44249300e-01  7.86827240e+00  1.88128850e+00  5.44249300e-01  1.68714400e-01
  1.68714400e-01  8.00000000e-01  4.38000000e-02  4.38000000e-02  1.87311370e+01
  2.82539370e+00  6.40121700e-01  1.61277800e-01  5.48467170e+03  8.25234950e+02
  1.88046960e+02  5.29645000e+01  1.68975700e+01  5.79963530e+00  1.55396160e+01
  3.59993360e+00  1.01376180e+00  1.55396160e+01  3.59993360e+00  1.01376180e+00
  2.70005800e-01  2.70005800e-01  8.00000000e-01  8.45000000e-02  8.45000000e-02
  1.87311370e+01  2.82539370e+00  6.40121700e-01  1.61277800e-01  1.87311370e+01
  2.82539370e+00  6.40121700e-01  1.61277800e-01  1.87311370e+01  2.82539370e+00
  6.40121700e-01  1.61277800e-01  1.87311370e+01  2.82539370e+00  6.40121700e-01
  1.61277800e-01  1.87311370e+01  2.82539370e+00  6.40121700e-01  1.61277800e-01
  1.87311370e+01  2.82539370e+00  6.40121700e-01  1.61277800e-01  1.87311370e+01
  2.82539370e+00  6.40121700e-01  1.61277800e-01  1.87311370e+01  2.82539370e+00
  6.40121700e-01  1.61277800e-01  5.48467170e+03  8.25234950e+02  1.88046960e+02
  5.29645000e+01  1.68975700e+01  5.79963530e+00  1.55396160e+01  3.59993360e+00
  1.01376180e+00  1.55396160e+01  3.59993360e+00  1.01376180e+00  2.70005800e-01
  2.70005800e-01  8.00000000e-01  8.45000000e-02  8.45000000e-02  3.04752490e+03
  4.57369510e+02  1.03948690e+02  2.92101550e+01  9.28666300e+00  3.16392700e+00
  7.86827240e+00  1.88128850e+00  5.44249300e-01  7.86827240e+00  1.88128850e+00
  5.44249300e-01  1.68714400e-01  1.68714400e-01  8.00000000e-01  4.38000000e-02
  4.38000000e-02  1.87311370e+01  2.82539370e+00  6.40121700e-01  1.61277800e-01
  1.87311370e+01  2.82539370e+00  6.40121700e-01  1.61277800e-01  1.87311370e+01
  2.82539370e+00  6.40121700e-01  1.61277800e-01
Contraction coefficients                   R   N=         298
  1.83470016e-03  1.40373012e-02  6.88426061e-02  2.32184421e-01  4.67941342e-01
  3.62312032e-01 -1.19332409e-01 -1.60854212e-01  1.14345648e+00  6.89990956e-02
  3.16423980e-01  7.44308252e-01  1.00000000e+00  1.00000000e+00  1.00000000e+00
  1.00000000e+00  1.00000000e+00  1.83470016e-03  1.40373012e-02  6.88426061e-02
  2.32184421e-01  4.67941342e-01  3.62312032e-01 -1.19332409e-01 -1.60854212e-01
  1.14345648e+00  6.89990956e-02  3.16423980e-01  7.44308252e-01  1.00000000e+00
  1.00000000e+00  1.00000000e+00  1.00000000e+00  1.00000000e+00  1.83470016e-03
  1.40373012e-02  6.88426061e-02  2.32184421e-01  4.67941342e-01  3.62312032e-01
 -1.19332409e-01 -1.60854212e-01  1.14345648e+00  6.89990956e-02  3.16423980e-01
  7.44308252e-01  1.00000000e+00  1.00000000e+00  1.00000000e+00  1.00000000e+00
  1.00000000e+00  1.83479944e-03  1.39949958e-02  6.85869792e-02  2.32240930e-01
  4.69069858e-01  3.60454891e-01 -1.14961023e-01 -1.69118034e-01  1.14585223e+00
  6.75800232e-02  3.23907111e-01  7.40895255e-01  1.00000000e+00  1.00000000e+00
  1.00000000e+00  1.00000000e+00  1.00000000e+00  1.83470016e-03  1.40373012e-02
  6.88426061e-02  2.32184421e-01  4.67941342e-01  3.62312032e-01 -1.19332409e-01
 -1.60854212e-01  1.14345648e+00  6.89990956e-02  3.16423980e-01  7.44308252e-01
  1.00000000e+00  1.00000000e+00  1.00000000e+00  1.00000000e+00  1.00000000e+00
  1.83470016e-03  1.40373012e-02  6.88426061e-02  2.32184421e-01  4.67941342e-01
  3.62312032e-01 -1.19332409e-01 -1.60854212e-01  1.14345648e+00  6.89990956e-02
  3.16423980e-01  7.44308252e-01  1.00000000e+00  1.00000000e+00  1.00000000e+00
  1.00000000e+00  1.00000000e+00  1.83470016e-03  1.40373012e-02  6.88426061e-02
  2.32184421e-01  4.67941342e-01  3.62312032e-01 -1.19332409e-01 -1.60854212e-01
  1.14345648e+00  6.89990956e-02  3.16423980e-01  7.44308252e-01  1.00000000e+00
  1.00000000e+00  1.00000000e+00  1.00000000e+00  1.00000000e+00  1.83470016e-03
  1.40373012e-02  6.88426061e-02  2.32184421e-01  4.67941342e-01  3.62312032e-01
 -1.19332409e-01 -1.60854212e-01  1.14345648e+00  6.89990956e-02  3.16423980e-01
  7.44308252e-01  1.00000000e+00  1.00000000e+00  1.00000000e+00  1.00000000e+00
  1.00000000e+00  1.83470016e-03  1.40373012e-02  6.88426061e-02  2.32184421e-01
  4.67941342e-01  3.62312032e-01 -1.19332409e-01 -1.60854212e-01  1.14345648e+00
  6.89990956e-02  3.16423980e-01  7.44308252e-01  1.00000000e+00  1.00000000e+00
  1.00000000e+00  1.00000000e+00  1.00000000e+00  3.34945995e-02  2.34726947e-01
  8.13757318e-01  1.00000000e+00  3.34945995e-02  2.34726947e-01  8.13757318e-01
  1.00000000e+00  1.83470016e-03  1.40373012e-02  6.88426061e-02  2.32184421e-01
  4.67941342e-01  3.62312032e-01 -1.19332409e-01 -1.60854212e-01  1.14345648e+00
  6.89990956e-02  3.16423980e-01  7.44308252e-01  1.00000000e+00  1.00000000e+00
  1.00000000e+00  1.00000000e+00  1.00000000e+00  3.34945995e-02  2.34726947e-01
  8.13757318e-01  1.00000000e+00  1.83470016e-03  1.40373012e-02  6.88426061e-02
  2.32184421e-01  4.67941342e-01  3.62312032e-01 -1.19332409e-01 -1.60854212e-01
  1.14345648e+00  6.89990956e-02  3.16423980e-01  7.44308252e-01  1.00000000e+00
  1.00000000e+00  1.00000000e+00  1.00000000e+00  1.00000000e+00  3.34945995e-02
  2.34726947e-01  8.13757318e-01  1.00000000e+00  1.83109981e-03  1.39500985e-02
  6.84450927e-02  2.32714275e-01  4.70192950e-01  3.58520862e-01 -1.10777504e-01
 -1.48026305e-01  1.13076704e+00  7.08742995e-02  3.39752798e-01  7.27158595e-01
  1.00000000e+00  1.00000000e+00  1.00000000e+00  1.00000000e+00  1.00000000e+00
  3.34945995e-02  2.34726947e-01  8.13757318e-01  1.00000000e+00  3.34945995e-02
  2.34726947e-01  8.13757318e-01  1.00000000e+00  3.34945995e-02  2.34726947e-01
  8.13757318e-01  1.00000000e+00  3.34945995e-02  2.34726947e-01  8.13757318e-01
  1.00000000e+00  3.34945995e-02  2.34726947e-01  8.13757318e-01  1.00000000e+00
  3.34945995e-02  2.34726947e-01  8.13757318e-01  1.00000000e+00  3.34945995e-02
  2.34726947e-01  8.13757318e-01  1.00000000e+00  3.34945995e-02  2.34726947e-01
  8.13757318e-01  1.00000000e+00  1.83109981e-03  1.39500985e-02  6.84450927e-02
  2.32714275e-01  4.70192950e-01  3.58520862e-01 -1.10777504e-01 -1.48026305e-01
  1.13076704e+00  7.08742995e-02  3.39752798e-01  7.27158595e-01  1.00000000e+00
  1.00000000e+00  1.00000000e+00  1.00000000e+00  1.00000000e+00  1.83470016e-03
  1.40373012e-02  6.88426061e-02  2.32184421e-01  4.67941342e-01  3.62312032e-01
 -1.19332409e-01 -1.60854212e-01  1.14345648e+00  6.89990956e-02  3.16423980e-01
  7.44308252e-01  1.00000000e+00  1.00000000e+00  1.00000000e+00  1.00000000e+00
  1.00000000e+00  3.34945995e-02  2.34726947e-01  8.13757318e-01  1.00000000e+00
  3.34945995e-02  2.34726947e-01  8.13757318e-01  1.00000000e+00  3.34945995e-02
  2.34726947e-01  8.13757318e-01  1.00000000e+00
Coordinates of each shell                  R   N=         426
 -7.11346775e-01  4.16831076e-01 -4.39135490e-01 -7.11346775e-01  4.16831076e-01
 -4.39135490e-01 -7.11346775e-01  4.16831076e-01 -4.39135490e-01 -7.11346775e-01
  4.16831076e-01 -4.39135490e-01 -7.11346775e-01  4.16831076e-01 -4.39135490e-01
 -7.11346775e-01  4.16831076e-01 -4.39135490e-01 -7.11346775e-01  4.16831076e-01
 -4.39135490e-01 -7.11346775e-01  4.16831076e-01 -4.39135490e-01 -2.96557601e+00
  1.94795635e+00  2.91705100e-01 -2.96557601e+00  1.94795635e+00  2.91705100e-01
 -2.96557601e+00  1.94795635e+00  2.91705100e-01 -2.96557601e+00  1.94795635e+00
  2.91705100e-01 -2.96557601e+00  1.94795635e+00  2.91705100e-01 -2.96557601e+00
  1.94795635e+00  2.91705100e-01 -2.96557601e+00  1.94795635e+00  2.91705100e-01
 -2.96557601e+00  1.94795635e+00  2.91705100e-01 -3.18112968e+00  3.30289263e+00
  2.87299830e+00 -3.18112968e+00  3.30289263e+00  2.87299830e+00 -3.18112968e+00
  3.30289263e+00  2.87299830e+00 -3.18112968e+00  3.30289263e+00  2.87299830e+00
 -3.18112968e+00  3.30289263e+00  2.87299830e+00 -3.18112968e+00  3.30289263e+00
  2.87299830e+00 -3.18112968e+00  3.30289263e+00  2.87299830e+00 -3.18112968e+00
  3.30289263e+00  2.87299830e+00 -2.54226192e+00  1.69677479e+00  5.03691152e+00
 -2.54226192e+00  1.69677479e+00  5.03691152e+00 -2.54226192e+00  1.69677479e+00
  5.03691152e+00 -2.54226192e+00  1.69677479e+00  5.03691152e+00 -2.54226192e+00
  1.69677479e+00  5.03691152e+00 -2.54226192e+00  1.69677479e+00  5.03691152e+00
 -2.54226192e+00  1.69677479e+00  5.03691152e+00 -2.54226192e+00  1.69677479e+00
  5.03691152e+00  1.33729090e+00 -1.14502065e-01  1.18330927e+00  1.33729090e+00
 -1.14502065e-01  1.18330927e+00  1.33729090e+00 -1.14502065e-01  1.18330927e+00
  1.33729090e+00 -1.14502065e-01  1.18330927e+00  1.33729090e+00 -1.14502065e-01
  1.18330927e+00  1.33729090e+00 -1.14502065e-01  1.18330927e+00  1.33729090e+00
 -1.14502065e-01  1.18330927e+00  1.33729090e+00 -1.14502065e-01  1.18330927e+00
  3.39003586e+00 -1.51609379e+00  3.42513314e-01  3.39003586e+00 -1.51609379e+00
  3.42513314e-01  3.39003586e+00 -1.51609379e+00  3.42513314e-01  3.39003586e+00
 -1.51609379e+00  3.42513314e-01  3.39003586e+00 -1.51609379e+00  3.42513314e-01
  3.39003586e+00 -1.51609379e+00  3.42513314e-01  3.39003586e+00 -1.51609379e+00
  3.42513314e-01  3.39003586e+00 -1.51609379e+00  3.42513314e-01  3.45787250e+00
 -2.43054054e+00 -2.14778215e+00  3.45787250e+00 -2.43054054e+00 -2.14778215e+00
  3.45787250e+00 -2.43054054e+00 -2.14778215e+00  3.45787250e+00 -2.43054054e+00
 -2.14778215e+00  3.45787250e+00 -2.43054054e+00 -2.14778215e+00  3.45787250e+00
 -2.43054054e+00 -2.14778215e+00  3.45787250e+00 -2.43054054e+00 -2.14778215e+00
  3.45787250e+00 -2.43054054e+00 -2.14778215e+00  1.43347322e+00 -1.92770501e+00
 -3.78918473e+00  1.43347322e+00 -1.92770501e+00 -3.78918473e+00  1.43347322e+00
 -1.92770501e+00 -3.78918473e+00  1.43347322e+00 -1.92770501e+00 -3.78918473e+00
  1.43347322e+00 -1.92770501e+00 -3.78918473e+00  1.43347322e+00 -1.92770501e+00
 -3.78918473e+00  1.43347322e+00 -1.92770501e+00 -3.78918473e+00  1.43347322e+00
 -1.92770501e+00 -3.78918473e+00 -6.13862571e-01 -5.19902141e-01 -2.92260085e+00
 -6.13862571e-01 -5.19902141e-01 -2.92260085e+00 -6.13862571e-01 -5.19902141e-01
 -2.92260085e+00 -6.13862571e-01 -5.19902141e-01 -2.92260085e+00 -6.13862571e-01
 -5.19902141e-01 -2.92260085e+00 -6.13862571e-01 -5.19902141e-01 -2.92260085e+00
 -6.13862571e-01 -5.19902141e-01 -2.92260085e+00 -6.13862571e-01 -5.19902141e-01
 -2.92260085e+00  1.27278007e+00  5.33827916e-01  3.12459088e+00  1.27278007e+00
  5.33827916e-01  3.12459088e+00  4.96701739e+00 -1.93703304e+00  1.58667925e+00
  4.96701739e+00 -1.93703304e+00  1.58667925e+00 -1.52309711e+00  5.69010087e+00
  2.87093938e+00 -1.52309711e+00  5.69010087e+00  2.87093938e+00 -1.52309711e+00
  5.69010087e+00  2.87093938e+00 -1.52309711e+00  5.69010087e+00  2.87093938e+00
 -1.52309711e+00  5.69010087e+00  2.87093938e+00 -1.52309711e+00  5.69010087e+00
  2.87093938e+00 -1.52309711e+00  5.69010087e+00  2.87093938e+00 -1.52309711e+00
  5.69010087e+00  2.87093938e+00 -5.17820102e+00  3.90334144e+00  2.93464543e+00
 -5.17820102e+00  3.90334144e+00  2.93464543e+00 -4.34182619e+00 -3.57163758e-01
  5.47840471e+00 -4.34182619e+00 -3.57163758e-01  5.47840471e+00 -4.34182619e+00
 -3.57163758e-01  5.47840471e+00 -4.34182619e+00 -3.57163758e-01  5.47840471e+00
 -4.34182619e+00 -3.57163758e-01  5.47840471e+00 -4.34182619e+00 -3.57163758e-01
  5.47840471e+00 -4.34182619e+00 -3.57163758e-01  5.47840471e+00 -4.34182619e+00
 -3.57163758e-01  5.47840471e+00 -2.43429286e+00  2.80417881e+00  6.60756236e+00
 -2.43429286e+00  2.80417881e+00  6.60756236e+00 -4.69401980e+00  2.28460572e+00
 -1.22102228e+00 -4.69401980e+00  2.28460572e+00 -1.22102228e+00 -4.69401980e+00
  2.28460572e+00 -1.22102228e+00 -4.69401980e+00  2.28460572e+00 -1.22102228e+00
 -4.69401980e+00  2.28460572e+00 -1.22102228e+00 -4.69401980e+00  2.28460572e+00
 -1.22102228e+00 -4.69401980e+00  2.28460572e+00 -1.22102228e+00 -4.69401980e+00
  2.28460572e+00 -1.22102228e+00  1.43931064e+00 -2.61370730e+00 -5.72000146e+00
  1.43931064e+00 -2.61370730e+00 -5.72000146e+00 -2.18430501e+00 -1.14899098e-01
 -4.17878912e+00 -2.18430501e+00 -1.14899098e-01 -4.17878912e+00  4.88908451e-01
  5.22037601e+00  2.76788376e+00  4.88908451e-01  5.22037601e+00  2.76788376e+00
 -1.84980307e+00  6.78131256e+00  4.60489740e+00 -1.84980307e+00  6.78131256e+00
  4.60489740e+00 -2.00329002e+00  6.90203297e+00  1.26436516e+00 -2.00329002e+00
  6.90203297e+00  1.26436516e+00 -4.23058813e+00 -1.72682283e+00  3.92939657e+00
 -4.23058813e+00 -1.72682283e+00  3.92939657e+00 -6.32327190e+00  2.85178601e-01
  5.62160961e+00 -6.32327190e+00  2.85178601e-01  5.62160961e+00 -3.83482645e+00
 -1.34180812e+00  7.22576294e+00 -3.83482645e+00 -1.34180812e+00  7.22576294e+00
  5.55107674e+00 -3.78102498e+00 -2.79032233e+00  5.55107674e+00 -3.78102498e+00
 -2.79032233e+00  5.55107674e+00 -3.78102498e+00 -2.79032233e+00  5.55107674e+00
 -3.78102498e+00 -2.79032233e+00  5.55107674e+00 -3.78102498e+00 -2.79032233e+00
  5.55107674e+00 -3.78102498e+00 -2.79032233e+00  5.55107674e+00 -3.78102498e+00
 -2.79032233e+00  5.55107674e+00 -3.78102498e+00 -2.79032233e+00  5.74254458e+00
 -4.77601843e+00 -5.28340995e+00  5.74254458e+00 -4.77601843e+00 -5.28340995e+00
  5.74254458e+00 -4.77601843e+00 -5.28340995e+00  5.74254458e+00 -4.77601843e+00
 -5.28340995e+00  5.74254458e+00 -4.77601843e+00 -5.28340995e+00  5.74254458e+00
 -4.77601843e+00 -5.28340995e+00  5.74254458e+00 -4.77601843e+00 -5.28340995e+00
  5.74254458e+00 -4.77601843e+00 -5.28340995e+00  5.73528972e+00 -3.26070919e+00
 -6.69895959e+00  5.73528972e+00 -3.26070919e+00 -6.69895959e+00  4.20425631e+00
 -6.10878834e+00 -5.68006930e+00  4.20425631e+00 -6.10878834e+00 -5.68006930e+00
  7.54804730e+00 -5.76954047e+00 -5.34801274e+00  7.54804730e+00 -5.76954047e+00
 -5.34801274e+00
Total Energy                               R     -6.334065323441960e+02
Alpha Orbital Energies                     R   N=         296
 -1.91996532e+01 -1.91384984e+01 -1.43356142e+01 -1.02741052e+01 -1.02670971e+01
 -1.02537609e+01 -1.02259237e+01 -1.02097727e+01 -1.02031874e+01 -1.02018236e+01
 -1.02005571e+01 -1.01987951e+01 -1.01961720e+01 -1.01908653e+01 -1.08275434e+00
 -1.03617281e+00 -9.15941260e-01 -8.62839514e-01 -7.77713777e-01 -7.65967320e-01
 -7.55860664e-01 -7.15029423e-01 -6.68482049e-01 -6.53426680e-01 -6.18322752e-01
 -6.10712198e-01 -5.55894721e-01 -5.38541816e-01 -5.00205136e-01 -4.96273313e-01
 -4.82880583e-01 -4.78181539e-01 -4.64908000e-01 -4.51347267e-01 -4.42449439e-01
 -4.33080176e-01 -4.24685526e-01 -4.23852995e-01 -4.05400496e-01 -3.95445451e-01
 -3.93195731e-01 -3.86947954e-01 -3.77165060e-01 -3.69967361e-01 -3.63952853e-01
 -3.52337318e-01 -3.37390948e-01 -3.25417629e-01 -2.64139196e-01 -2.52683285e-01
 -2.36008839e-01 -2.33307777e-01 -5.73808175e-02 -1.66249863e-02 -9.42248797e-04
  2.57593810e-03  1.82630510e-02  2.10767504e-02  2.51883810e-02  2.80372905e-02
  3.54198513e-02  4.10755264e-02  4.56083715e-02  4.62794365e-02  5.69066085e-02
  5.91462723e-02  6.57449270e-02  6.66786690e-02  7.90489388e-02  8.36636461e-02
  8.51003326e-02  9.15160044e-02  9.53314603e-02  1.04361266e-01  1.09939740e-01
  1.18184628e-01  1.22358490e-01  1.27017943e-01  1.31631969e-01  1.34909801e-01
  1.39817568e-01  1.44107791e-01  1.48606901e-01  1.50674557e-01  1.54766449e-01
  1.61598066e-01  1.67327786e-01  1.71829298e-01  1.73788057e-01  1.79703653e-01
  1.88731784e-01  1.93819361e-01  2.01518935e-01  2.04834817e-01  2.07598317e-01
  2.09960492e-01  2.16372464e-01  2.20433579e-01  2.24096523e-01  2.24697209e-01
  2.32684126e-01  2.38536769e-01  2.40811296e-01  2.47654745e-01  2.49354828e-01
  2.50013878e-01  2.57229753e-01  2.61024988e-01  2.61339589e-01  2.72680885e-01
  2.76880605e-01  2.78923045e-01  2.85099739e-01  2.86525664e-01  2.94502765e-01
  3.04126615e-01  3.07713686e-01  3.11850951e-01  3.18508500e-01  3.24938644e-01
  3.26578243e-01  3.30777544e-01  3.39895361e-01  3.45800372e-01  3.52320955e-01
  3.60968270e-01  3.66434470e-01  3.74445670e-01  3.76512833e-01  3.83106334e-01
  3.88413097e-01  4.05446510e-01  4.30745206e-01  4.41055252e-01  4.47117882e-01
  4.55271896e-01  4.64378411e-01  4.79983148e-01  5.19318375e-01  5.92721736e-01
  6.19979152e-01  6.52264864e-01  6.68239323e-01  6.76228358e-01  6.81225244e-01
  6.82702146e-01  6.95126657e-01  6.95821668e-01  7.00499153e-01  7.15438042e-01
  7.31737143e-01  7.39694987e-01  7.46862845e-01  7.51652277e-01  7.67251513e-01
  7.70656793e-01  7.85540533e-01  8.01564320e-01  8.11177917e-01  8.20182234e-01
  8.33666798e-01  8.44813241e-01  8.57818904e-01  8.82841544e-01  8.93838313e-01
  8.99424335e-01  9.02887490e-01  9.09347514e-01  9.37198932e-01  9.52607083e-01
  9.65844579e-01  9.69726994e-01  9.86717855e-01  9.97958378e-01  1.01870090e+00
  1.02864767e+00  1.03437818e+00  1.03861097e+00  1.04467424e+00  1.06366035e+00
  1.08059207e+00  1.09045576e+00  1.10735352e+00  1.11747159e+00  1.12336534e+00
  1.14212598e+00  1.15430539e+00  1.16582131e+00  1.17266086e+00  1.19884259e+00
  1.20730170e+00  1.21602594e+00  1.22105127e+00  1.24207333e+00  1.26226468e+00
  1.27280239e+00  1.29232686e+00  1.30108765e+00  1.31668075e+00  1.35338267e+00
  1.36244501e+00  1.36750695e+00  1.38379397e+00  1.39142015e+00  1.42287477e+00
  1.42718264e+00  1.43731861e+00  1.44914173e+00  1.46030058e+00  1.46346212e+00