Generated by Psi4
     FORCE                           RHF                       TESTBAS
Number of atoms                            I               23
Charge                                     I                0
Multiplicity                               I                1
Number of electrons                        I               90
Number of alpha electrons                  I               45
Number of beta electrons                   I               45
Number of basis functions                  I              237
Number of independent functions            I              237
Atomic numbers                             I   N=          23
           6           6           6           1           1           7
           6           6           6           6           6           1
           1           1           1          17           6           1
           1           1           1           1           1
Nuclear charges                            R   N=          23
  6.00000000e+00  6.00000000e+00  6.00000000e+00  1.00000000e+00  1.00000000e+00
  7.00000000e+00  6.00000000e+00  6.00000000e+00  6.00000000e+00  6.00000000e+00
  6.00000000e+00  1.00000000e+00  1.00000000e+00  1.00000000e+00  1.00000000e+00
  1.70000000e+01  6.00000000e+00  1.00000000e+00  1.00000000e+00  1.00000000e+00
  1.00000000e+00  1.00000000e+00  1.00000000e+00
Current cartesian coordinates              R   N=          69
 -6.81009879e-02 -1.27140116e+00  1.13796967e+00 -1.50626438e+00 -2.67635658e+00
  3.17283417e+00 -4.34334634e+00 -1.93365023e+00  3.42049153e+00 -5.89589750e-01
 -2.38411072e+00  5.01349543e+00 -1.41847963e+00 -4.71508528e+00  2.78510702e+00
 -5.75600093e+00 -3.57160790e+00  5.15969681e+00  1.62950777e+00  6.75028459e-01
  1.72981623e+00  2.92880297e+00  1.99618380e+00 -1.51419177e-01  2.52390938e+00
  1.36092176e+00 -2.67572209e+00  8.53269822e-01 -5.70216794e-01 -3.33270669e+00
 -4.21764963e-01 -1.86847805e+00 -1.42279816e+00 -1.70800464e+00 -3.38577178e+00
 -1.94444015e+00 -5.08300354e+00 -3.39746509e+00  6.95770616e+00 -5.58162795e+00
 -5.42596748e+00  4.67064726e+00  4.24151215e+00  3.49439928e+00  3.38148385e-01
  4.15131555e+00  3.00626514e+00 -5.06627854e+00 -4.69259319e+00  8.15558947e-01
  4.24602596e+00 -5.22223167e+00 -2.16765660e+00  1.55361360e+00 -3.86538064e+00
  1.12881925e+00  6.12609634e+00 -6.70633073e+00  1.27563728e+00  4.35028780e+00
 -3.77893489e+00  2.12266018e+00  2.92854784e+00  5.64007087e-01 -1.05697587e+00
 -5.30423516e+00  1.95477651e+00  1.17265879e+00  3.69753373e+00
Integer atomic weights                     I   N=          23
          12          12          12           1           1          14
          12          12          12          12          12           1
           1           1           1          34          12           1
           1           1           1           1           1
Real atomic weights                        R   N=          23
  1.20000000e+01  1.20000000e+01  1.20000000e+01  1.00782503e+00  1.00782503e+00
  1.40030740e+01  1.20000000e+01  1.20000000e+01  1.20000000e+01  1.20000000e+01
  1.20000000e+01  1.00782503e+00  1.00782503e+00  1.00782503e+00  1.00782503e+00
  3.49688527e+01  1.20000000e+01  1.00782503e+00  1.00782503e+00  1.00782503e+00
  1.00782503e+00  1.00782503e+00  1.00782503e+00
Number of primitive shells                 I              247
Number of contracted shells                I              114
Pure/Cartesian d shells                    I                1
Pure/Cartesian f shells                    I                1
Highest angular momentum                   I                2
Largest degree of contraction              I                6
Shell types                                I   N=         114
           0           0           1           0           1           2
           0           1           0           0           1           0
           1           2           0           1           0           0
           1           0           1           2           0           1
           0           0           0           0           0           0
           1           0           1           2           0           1
           0           0           1           0           1           2
           0           1           0           0           1           0
           1           2           0           1           0           0
           1           0           1           2           0           1
           0           0           1           0           1           2
           0           1           0           0           1           0
           1           2           0           1           0           0
           0           0           0           0           0           0
           0           0           1           0           1           0
           1           2           0           1           0           0
           1           0           1           2           0           1
           0           0           0           0           0           0
           0           0           0           0           0           0
Number of primitives per shell             I   N=         114
           6           3           3           1           1           1
           1           1           6           3           3           1
           1           1           1           1           6           3
           3           1           1           1           1           1
           3           1           3           1           6           3
           3           1           1           1           1           1
           6           3           3           1           1           1
           1           1           6           3           3           1
           1           1           1           1           6           3
           3           1           1           1           1           1
           6           3           3           1           1           1
           1           1           6           3           3           1
           1           1           1           1           3           1
           3           1           3           1           3           1
           6           6           6           3           3           1
           1           1           1           1           6           3
           3           1           1           1           1           1
           3           1           3           1           3           1
           3           1           3           1           3           1
Shell to atom map                          I   N=         114
           1           1           1           1           1           1
           1           1           2           2           2           2
           2           2           2           2           3           3
           3           3           3           3           3           3
           4           4           5           5           6           6
           6           6           6           6           6           6
           7           7           7           7           7           7
           7           7           8           8           8           8
           8           8           8           8           9           9
           9           9           9           9           9           9
          10          10          10          10          10          10
          10          10          11          11          11          11
          11          11          11          11          12          12
          13          13          14          14          15          15
          16          16          16          16          16          16
          16          16          16          16          17          17
          17          17          17          17          17          17
          18          18          19          19          20          20
          21          21          22          22          23          23
Primitive exponents                        R   N=         247
  3.04752490e+03  4.57369510e+02  1.03948690e+02  2.92101550e+01  9.28666300e+00
  3.16392700e+00  7.86827240e+00  1.88128850e+00  5.44249300e-01  7.86827240e+00
  1.88128850e+00  5.44249300e-01  1.68714400e-01  1.68714400e-01  8.00000000e-01
  4.38000000e-02  4.38000000e-02  3.04752490e+03  4.57369510e+02  1.03948690e+02
  2.92101550e+01  9.28666300e+00  3.16392700e+00  7.86827240e+00  1.88128850e+00
  5.44249300e-01  7.86827240e+00  1.88128850e+00  5.44249300e-01  1.68714400e-01
  1.68714400e-01  8.00000000e-01  4.38000000e-02  4.38000000e-02  3.04752490e+03
  4.57369510e+02  1.03948690e+02  2.92101550e+01  9.28666300e+00  3.16392700e+00
  7.86827240e+00  1.88128850e+00  5.44249300e-01  7.86827240e+00  1.88128850e+00
  5.44249300e-01  1.68714400e-01  1.68714400e-01  8.00000000e-01  4.38000000e-02
  4.38000000e-02  1.87311370e+01  2.82539370e+00  6.40121700e-01  1.61277800e-01
  1.87311370e+01  2.82539370e+00  6.40121700e-01  1.61277800e-01  4.17351100e+03
  6.27457900e+02  1.42902100e+02  4.02343300e+01  1.28202100e+01  4.39043700e+00
  1.16263580e+01  2.71628000e+00  7.72218000e-01  1.16263580e+01  2.71628000e+00
  7.72218000e-01  2.12031300e-01  2.12031300e-01  8.00000000e-01  6.39000000e-02
  6.39000000e-02  3.04752490e+03  4.57369510e+02  1.03948690e+02  2.92101550e+01
  9.28666300e+00  3.16392700e+00  7.86827240e+00  1.88128850e+00  5.44249300e-01
  7.86827240e+00  1.88128850e+00  5.44249300e-01  1.68714400e-01  1.68714400e-01
  8.00000000e-01  4.38000000e-02  4.38000000e-02  3.04752490e+03  4.57369510e+02
  1.03948690e+02  2.92101550e+01  9.28666300e+00  3.16392700e+00  7.86827240e+00
  1.88128850e+00  5.44249300e-01  7.86827240e+00  1.88128850e+00  5.44249300e-01
  1.68714400e-01  1.68714400e-01  8.00000000e-01  4.38000000e-02  4.38000000e-02
  3.04752490e+03  4.57369510e+02  1.03948690e+02  2.92101550e+01  9.28666300e+00
  3.16392700e+00  7.86827240e+00  1.88128850e+00  5.44249300e-01  7.86827240e+00
  1.88128850e+00  5.44249300e-01  1.68714400e-01  1.68714400e-01  8.00000000e-01
  4.38000000e-02  4.38000000e-02  3.04752490e+03  4.57369510e+02  1.03948690e+02
  2.92101550e+01  9.28666300e+00  3.16392700e+00  7.86827240e+00  1.88128850e+00
  5.44249300e-01  7.86827240e+00  1.88128850e+00  5.44249300e-01  1.68714400e-01
  1.68714400e-01  8.00000000e-01  4.38000000e-02  4.38000000e-02  3.04752490e+03
  4.57369510e+02  1.03948690e+02  2.92101550e+01  9.28666300e+00  3.16392700e+00
  7.86827240e+00  1.88128850e+00  5.44249300e-01  7.86827240e+00  1.88128850e+00
  5.44249300e-01  1.68714400e-01  1.68714400e-01  8.00000000e-01  4.38000000e-02
  4.38000000e-02  1.87311370e+01  2.82539370e+00  6.40121700e-01  1.61277800e-01
  1.87311370e+01  2.82539370e+00  6.40121700e-01  1.61277800e-01  1.87311370e+01
  2.82539370e+00  6.40121700e-01  1.61277800e-01  1.87311370e+01  2.82539370e+00
  6.40121700e-01  1.61277800e-01  2.51801000e+04  3.78035000e+03  8.60474000e+02
  2.42145000e+02  7.73349000e+01  2.62470000e+01  4.91765000e+02  1.16984000e+02
  3.74153000e+01  1.37834000e+01  5.45215000e+00  2.22588000e+00  4.91765000e+02
  1.16984000e+02  3.74153000e+01  1.37834000e+01  5.45215000e+00  2.22588000e+00
  3.18649000e+00  1.14427000e+00  4.20377000e-01  3.18649000e+00  1.14427000e+00
  4.20377000e-01  1.42657000e-01  1.42657000e-01  7.50000000e-01  4.83000000e-02
  4.83000000e-02  3.04752490e+03  4.57369510e+02  1.03948690e+02  2.92101550e+01
  9.28666300e+00  3.16392700e+00  7.86827240e+00  1.88128850e+00  5.44249300e-01
  7.86827240e+00  1.88128850e+00  5.44249300e-01  1.68714400e-01  1.68714400e-01
  8.00000000e-01  4.38000000e-02  4.38000000e-02  1.87311370e+01  2.82539370e+00
  6.40121700e-01  1.61277800e-01  1.87311370e+01  2.82539370e+00  6.40121700e-01
  1.61277800e-01  1.87311370e+01  2.82539370e+00  6.40121700e-01  1.61277800e-01
  1.87311370e+01  2.82539370e+00  6.40121700e-01  1.61277800e-01  1.87311370e+01
  2.82539370e+00  6.40121700e-01  1.61277800e-01  1.87311370e+01  2.82539370e+00
  6.40121700e-01  1.61277800e-01
Contraction coefficients                   R   N=         247
  1.83470016e-03  1.40373012e-02  6.88426061e-02  2.32184421e-01  4.67941342e-01
  3.62312032e-01 -1.19332409e-01 -1.60854212e-01  1.14345648e+00  6.89990956e-02
  3.16423980e-01  7.44308252e-01  1.00000000e+00  1.00000000e+00  1.00000000e+00
  1.00000000e+00  1.00000000e+00  1.83470016e-03  1.40373012e-02  6.88426061e-02
  2.32184421e-01  4.67941342e-01  3.62312032e-01 -1.19332409e-01 -1.60854212e-01
  1.14345648e+00  6.89990956e-02  3.16423980e-01  7.44308252e-01  1.00000000e+00
  1.00000000e+00  1.00000000e+00  1.00000000e+00  1.00000000e+00  1.83470016e-03
  1.40373012e-02  6.88426061e-02  2.32184421e-01  4.67941342e-01  3.62312032e-01
 -1.19332409e-01 -1.60854212e-01  1.14345648e+00  6.89990956e-02  3.16423980e-01
  7.44308252e-01  1.00000000e+00  1.00000000e+00  1.00000000e+00  1.00000000e+00
  1.00000000e+00  3.34945995e-02  2.34726947e-01  8.13757318e-01  1.00000000e+00
  3.34945995e-02  2.34726947e-01  8.13757318e-01  1.00000000e+00  1.83479944e-03
  1.39949958e-02  6.85869792e-02  2.32240930e-01  4.69069858e-01  3.60454891e-01
 -1.14961023e-01 -1.69118034e-01  1.14585223e+00  6.75800232e-02  3.23907111e-01
  7.40895255e-01  1.00000000e+00  1.00000000e+00  1.00000000e+00  1.00000000e+00
  1.00000000e+00  1.83470016e-03  1.40373012e-02  6.88426061e-02  2.32184421e-01
  4.67941342e-01  3.62312032e-01 -1.19332409e-01 -1.60854212e-01  1.14345648e+00
  6.89990956e-02  3.16423980e-01  7.44308252e-01  1.00000000e+00  1.00000000e+00
  1.00000000e+00  1.00000000e+00  1.00000000e+00  1.83470016e-03  1.40373012e-02
  6.88426061e-02  2.32184421e-01  4.67941342e-01  3.62312032e-01 -1.19332409e-01
 -1.60854212e-01  1.14345648e+00  6.89990956e-02  3.16423980e-01  7.44308252e-01
  1.00000000e+00  1.00000000e+00  1.00000000e+00  1.00000000e+00  1.00000000e+00
  1.83470016e-03  1.40373012e-02  6.88426061e-02  2.32184421e-01  4.67941342e-01
  3.62312032e-01 -1.19332409e-01 -1.60854212e-01  1.14345648e+00  6.89990956e-02
  3.16423980e-01  7.44308252e-01  1.00000000e+00  1.00000000e+00  1.00000000e+00
  1.00000000e+00  1.00000000e+00  1.83470016e-03  1.40373012e-02  6.88426061e-02
  2.32184421e-01  4.67941342e-01  3.62312032e-01 -1.19332409e-01 -1.60854212e-01
  1.14345648e+00  6.89990956e-02  3.16423980e-01  7.44308252e-01  1.00000000e+00
  1.00000000e+00  1.00000000e+00  1.00000000e+00  1.00000000e+00  1.83470016e-03
  1.40373012e-02  6.88426061e-02  2.32184421e-01  4.67941342e-01  3.62312032e-01
 -1.19332409e-01 -1.60854212e-01  1.14345648e+00  6.89990956e-02  3.16423980e-01
  7.44308252e-01  1.00000000e+00  1.00000000e+00  1.00000000e+00  1.00000000e+00
  1.00000000e+00  3.34945995e-02  2.34726947e-01  8.13757318e-01  1.00000000e+00
  3.34945995e-02  2.34726947e-01  8.13757318e-01  1.00000000e+00  3.34945995e-02
  2.34726947e-01  8.13757318e-01  1.00000000e+00  3.34945995e-02  2.34726947e-01
  8.13757318e-01  1.00000000e+00  1.83300031e-03  1.40340024e-02  6.90970118e-02
  2.37452040e-01  4.83034082e-01  3.39856058e-01 -2.29740199e-03 -3.07140266e-02
 -1.12528097e-01  4.50160390e-02  5.89353510e-01  4.65206403e-01  3.98940055e-03
  3.03180042e-02  1.29880018e-01  3.27951045e-01  4.53527062e-01  2.52154035e-01
 -2.51831288e-01  6.15893150e-02  1.06018542e+00 -1.42990127e-02  3.23572288e-01
  7.43507661e-01  1.00000000e+00  1.00000000e+00  1.00000000e+00  1.00000000e+00
  1.00000000e+00  1.83470016e-03  1.40373012e-02  6.88426061e-02  2.32184421e-01
  4.67941342e-01  3.62312032e-01 -1.19332409e-01 -1.60854212e-01  1.14345648e+00
  6.89990956e-02  3.16423980e-01  7.44308252e-01  1.00000000e+00  1.00000000e+00
  1.00000000e+00  1.00000000e+00  1.00000000e+00  3.34945995e-02  2.34726947e-01
  8.13757318e-01  1.00000000e+00  3.34945995e-02  2.34726947e-01  8.13757318e-01
  1.00000000e+00  3.34945995e-02  2.34726947e-01  8.13757318e-01  1.00000000e+00
  3.34945995e-02  2.34726947e-01  8.13757318e-01  1.00000000e+00  3.34945995e-02
  2.34726947e-01  8.13757318e-01  1.00000000e+00  3.34945995e-02  2.34726947e-01
  8.13757318e-01  1.00000000e+00
Coordinates of each shell                  R   N=         342
 -6.81009879e-02 -1.27140116e+00  1.13796967e+00 -6.81009879e-02 -1.27140116e+00
  1.13796967e+00 -6.81009879e-02 -1.27140116e+00  1.13796967e+00 -6.81009879e-02
 -1.27140116e+00  1.13796967e+00 -6.81009879e-02 -1.27140116e+00  1.13796967e+00
 -6.81009879e-02 -1.27140116e+00  1.13796967e+00 -6.81009879e-02 -1.27140116e+00
  1.13796967e+00 -6.81009879e-02 -1.27140116e+00  1.13796967e+00 -1.50626438e+00
 -2.67635658e+00  3.17283417e+00 -1.50626438e+00 -2.67635658e+00  3.17283417e+00
 -1.50626438e+00 -2.67635658e+00  3.17283417e+00 -1.50626438e+00 -2.67635658e+00
  3.17283417e+00 -1.50626438e+00 -2.67635658e+00  3.17283417e+00 -1.50626438e+00
 -2.67635658e+00  3.17283417e+00 -1.50626438e+00 -2.67635658e+00  3.17283417e+00
 -1.50626438e+00 -2.67635658e+00  3.17283417e+00 -4.34334634e+00 -1.93365023e+00
  3.42049153e+00 -4.34334634e+00 -1.93365023e+00  3.42049153e+00 -4.34334634e+00
 -1.93365023e+00  3.42049153e+00 -4.34334634e+00 -1.93365023e+00  3.42049153e+00
 -4.34334634e+00 -1.93365023e+00  3.42049153e+00 -4.34334634e+00 -1.93365023e+00
  3.42049153e+00 -4.34334634e+00 -1.93365023e+00  3.42049153e+00 -4.34334634e+00
 -1.93365023e+00  3.42049153e+00 -5.89589750e-01 -2.38411072e+00  5.01349543e+00
 -5.89589750e-01 -2.38411072e+00  5.01349543e+00 -1.41847963e+00 -4.71508528e+00
  2.78510702e+00 -1.41847963e+00 -4.71508528e+00  2.78510702e+00 -5.75600093e+00
 -3.57160790e+00  5.15969681e+00 -5.75600093e+00 -3.57160790e+00  5.15969681e+00
 -5.75600093e+00 -3.57160790e+00  5.15969681e+00 -5.75600093e+00 -3.57160790e+00
  5.15969681e+00 -5.75600093e+00 -3.57160790e+00  5.15969681e+00 -5.75600093e+00
 -3.57160790e+00  5.15969681e+00 -5.75600093e+00 -3.57160790e+00  5.15969681e+00
 -5.75600093e+00 -3.57160790e+00  5.15969681e+00  1.62950777e+00  6.75028459e-01
  1.72981623e+00  1.62950777e+00  6.75028459e-01  1.72981623e+00  1.62950777e+00
  6.75028459e-01  1.72981623e+00  1.62950777e+00  6.75028459e-01  1.72981623e+00
  1.62950777e+00  6.75028459e-01  1.72981623e+00  1.62950777e+00  6.75028459e-01
  1.72981623e+00  1.62950777e+00  6.75028459e-01  1.72981623e+00  1.62950777e+00
  6.75028459e-01  1.72981623e+00  2.92880297e+00  1.99618380e+00 -1.51419177e-01
  2.92880297e+00  1.99618380e+00 -1.51419177e-01  2.92880297e+00  1.99618380e+00
 -1.51419177e-01  2.92880297e+00  1.99618380e+00 -1.51419177e-01  2.92880297e+00
  1.99618380e+00 -1.51419177e-01  2.92880297e+00  1.99618380e+00 -1.51419177e-01
  2.92880297e+00  1.99618380e+00 -1.51419177e-01  2.92880297e+00  1.99618380e+00
 -1.51419177e-01  2.52390938e+00  1.36092176e+00 -2.67572209e+00  2.52390938e+00
  1.36092176e+00 -2.67572209e+00  2.52390938e+00  1.36092176e+00 -2.67572209e+00
  2.52390938e+00  1.36092176e+00 -2.67572209e+00  2.52390938e+00  1.36092176e+00
 -2.67572209e+00  2.52390938e+00  1.36092176e+00 -2.67572209e+00  2.52390938e+00
  1.36092176e+00 -2.67572209e+00  2.52390938e+00  1.36092176e+00 -2.67572209e+00
  8.53269822e-01 -5.70216794e-01 -3.33270669e+00  8.53269822e-01 -5.70216794e-01
 -3.33270669e+00  8.53269822e-01 -5.70216794e-01 -3.33270669e+00  8.53269822e-01
 -5.70216794e-01 -3.33270669e+00  8.53269822e-01 -5.70216794e-01 -3.33270669e+00
  8.53269822e-01 -5.70216794e-01 -3.33270669e+00  8.53269822e-01 -5.70216794e-01
 -3.33270669e+00  8.53269822e-01 -5.70216794e-01 -3.33270669e+00 -4.21764963e-01
 -1.86847805e+00 -1.42279816e+00 -4.21764963e-01 -1.86847805e+00 -1.42279816e+00
 -4.21764963e-01 -1.86847805e+00 -1.42279816e+00 -4.21764963e-01 -1.86847805e+00
 -1.42279816e+00 -4.21764963e-01 -1.86847805e+00 -1.42279816e+00 -4.21764963e-01
 -1.86847805e+00 -1.42279816e+00 -4.21764963e-01 -1.86847805e+00 -1.42279816e+00
 -4.21764963e-01 -1.86847805e+00 -1.42279816e+00 -1.70800464e+00 -3.38577178e+00
 -1.94444015e+00 -1.70800464e+00 -3.38577178e+00 -1.94444015e+00 -5.08300354e+00
 -3.39746509e+00  6.95770616e+00 -5.08300354e+00 -3.39746509e+00  6.95770616e+00
 -5.58162795e+00 -5.42596748e+00  4.67064726e+00 -5.58162795e+00 -5.42596748e+00
  4.67064726e+00  4.24151215e+00  3.49439928e+00  3.38148385e-01  4.24151215e+00
  3.49439928e+00  3.38148385e-01  4.15131555e+00  3.00626514e+00 -5.06627854e+00
  4.15131555e+00  3.00626514e+00 -5.06627854e+00  4.15131555e+00  3.00626514e+00
 -5.06627854e+00  4.15131555e+00  3.00626514e+00 -5.06627854e+00  4.15131555e+00
  3.00626514e+00 -5.06627854e+00  4.15131555e+00  3.00626514e+00 -5.06627854e+00
  4.15131555e+00  3.00626514e+00 -5.06627854e+00  4.15131555e+00  3.00626514e+00
 -5.06627854e+00  4.15131555e+00  3.00626514e+00 -5.06627854e+00  4.15131555e+00
  3.00626514e+00 -5.06627854e+00 -4.69259319e+00  8.15558947e-01  4.24602596e+00
 -4.69259319e+00  8.15558947e-01  4.24602596e+00 -4.69259319e+00  8.15558947e-01
  4.24602596e+00 -4.69259319e+00  8.15558947e-01  4.24602596e+00 -4.69259319e+00
  8.15558947e-01  4.24602596e+00 -4.69259319e+00  8.15558947e-01  4.24602596e+00
 -4.69259319e+00  8.15558947e-01  4.24602596e+00 -4.69259319e+00  8.15558947e-01
  4.24602596e+00 -5.22223167e+00 -2.16765660e+00  1.55361360e+00 -5.22223167e+00
 -2.16765660e+00  1.55361360e+00 -3.86538064e+00  1.12881925e+00  6.12609634e+00
 -3.86538064e+00  1.12881925e+00  6.12609634e+00 -6.70633073e+00  1.27563728e+00
  4.35028780e+00 -6.70633073e+00  1.27563728e+00  4.35028780e+00 -3.77893489e+00
  2.12266018e+00  2.92854784e+00 -3.77893489e+00  2.12266018e+00  2.92854784e+00
  5.64007087e-01 -1.05697587e+00 -5.30423516e+00  5.64007087e-01 -1.05697587e+00
 -5.30423516e+00  1.95477651e+00  1.17265879e+00  3.69753373e+00  1.95477651e+00
  1.17265879e+00  3.69753373e+00
Total Energy                               R     -8.651505216979639e+02
Alpha Orbital Energies                     R   N=         237
 -1.01555394e+02 -1.43282016e+01 -1.02599825e+01 -1.02278372e+01 -1.02140320e+01
 -1.02129106e+01 -1.02125405e+01 -1.02095139e+01 -1.02092052e+01 -1.02001280e+01
 -1.01807375e+01 -9.47056102e+00 -7.23458489e+00 -7.22490876e+00 -7.22465043e+00
 -9.00117014e-01 -8.94752146e-01 -8.47527652e-01 -7.80161555e-01 -7.66112846e-01
 -7.34539113e-01 -6.87041803e-01 -6.30816905e-01 -6.06307041e-01 -5.84364896e-01
 -5.18837267e-01 -5.04430904e-01 -4.83499203e-01 -4.74845483e-01 -4.64473444e-01
 -4.42539616e-01 -4.39057447e-01 -4.20295975e-01 -4.05142224e-01 -3.99501720e-01
 -3.79997894e-01 -3.67697315e-01 -3.65005107e-01 -3.59650462e-01 -3.44708301e-01
 -3.31195631e-01 -3.17645282e-01 -2.71052915e-01 -2.58650375e-01 -2.38470763e-01
 -2.94280087e-02 -2.65833540e-02 -6.89834661e-03  4.81205455e-03  1.16098413e-02
  1.27875707e-02  2.74518817e-02  3.48808069e-02  3.83821813e-02  4.24706538e-02
  5.27177874e-02  6.05436325e-02  6.48078624e-02  6.90653503e-02  7.14240929e-02
  8.44384942e-02  9.20871014e-02  9.37613176e-02  1.02475006e-01  1.05833841e-01
  1.08412303e-01  1.12114986e-01  1.23471310e-01  1.30095666e-01  1.32357778e-01
  1.38495714e-01  1.39284235e-01  1.43065025e-01  1.47379791e-01  1.58435090e-01
  1.67233322e-01  1.71313801e-01  1.74806144e-01  1.80119426e-01  1.85488420e-01
  1.90432371e-01  1.93565025e-01  1.96594689e-01  2.04106842e-01  2.10750389e-01
  2.14521988e-01  2.17117049e-01  2.26002380e-01  2.32463424e-01  2.33894594e-01
  2.34986069e-01  2.39020291e-01  2.49085354e-01  2.52991148e-01  2.55374921e-01
  2.68650906e-01  2.73402015e-01  2.76739087e-01  2.85190887e-01  2.89726153e-01
  2.96131283e-01  3.02705487e-01  3.09462260e-01  3.22223623e-01  3.30082146e-01
  3.34350199e-01  3.49636172e-01  3.54893030e-01  3.63906911e-01  3.76672339e-01
  3.78383078e-01  3.91896342e-01  4.55019443e-01  5.22465098e-01  5.46771110e-01
  6.09980278e-01  6.13103759e-01  6.20266020e-01  6.43720484e-01  6.58455741e-01
  6.60846464e-01  6.70911915e-01  6.80327470e-01  6.88509099e-01  6.92290266e-01
  7.07100859e-01  7.12422975e-01  7.14063577e-01  7.30553498e-01  7.44605446e-01
  7.55284694e-01  7.66867761e-01  7.77751268e-01  7.85205741e-01  7.92119406e-01
  8.09874838e-01  8.16181213e-01  8.27894085e-01  8.70665667e-01  8.72195440e-01
  8.93589251e-01  9.14677448e-01  9.27287408e-01  9.38298079e-01  9.46126207e-01
  9.51185269e-01  9.65964267e-01  9.74831317e-01  9.78743159e-01  9.95148726e-01
  1.00141206e+00  1.01425283e+00  1.02996504e+00  1.05239771e+00  1.05829403e+00
  1.07822386e+00  1.08847468e+00  1.11160922e+00  1.11804429e+00  1.12843077e+00
  1.14025002e+00  1.15983032e+00  1.17101918e+00  1.19232479e+00  1.20555679e+00
  1.22052667e+00  1.24144160e+00  1.25863596e+00  1.28264224e+00  1.36606559e+00
  1.38973040e+00  1.39742857e+00  1.42733192e+00  1.43526714e+00  1.45828096e+00
  1.46912741e+00  1.49072910e+00  1.49635113e+00  1.55171091e+00  1.56405816e+00
  1.57355760e+00  1.62679298e+00  1.71542592e+00  1.79122009e+00  1.80278931e+00
  1.83371973e+00  1.84606150e+00  1.85377227e+00  1.88146194e+00  1.91175575e+00
  1.95930061e+00  1.96279707e+00  1.98473282e+00  2.01342562e+00  2.04678624e+00
  2.07066625e+00  2.09466666e+00  2.10519791e+00  2.13208201e+00  2.15460249e+00
  2.16802535e+00  2.17530602e+00  2.20312838e+00  2.21734940e+00  2.24143954e+00
  2.26947213e+00  2.29481987e+00  2.32316778e+00  2.33826381e+00  2.40448845e+00
  2.40802357e+00  2.50128026e+00  2.56688990e+00  2.59660074e+00  2.60391418e+00
  2.63048074e+00  2.64511055e+00  2.70978658e+00  2.74073387e+00  2.75657884e+00
  2.76361044e+00  2.77025543e+00  2.83449644e+00  2.95655443e+00  3.04944086e+00
  3.36396786e+00  3.98186941e+00  4.21697922e+00  4.23703140e+00  4.25144247e+00
  4.31948700e+00  4.35017881e+00  4.38374958e+00  4.39709782e+00  4.47975672e+00
  4.60702332e+00  4.70021774e+00
Alpha MO coefficients                      R   N=       56169
 -1.67399344e-06 -1.22991047e-05 -1.22161902e-06 -8.42431054e-07  1.58621483e-06
  1.42357007e-04  5.49357057e-05  5.44311891e-05 -8.14259435e-05 -2.36533573e-07
  6.75562048e-07  3.23866395e-06  3.61499395e-06  6.84379949e-07  1.33572229e-06
  1.33897180e-03 -4.40774505e-04 -4.65857828e-04  7.66192331e-04  9.27071655e-07
  2.80921643e-06  1.64255349e-06  1.69021038e-06 -2.79464782e-06  1.75236428e-05
  6.55348919e-06  1.08862609e-06 -6.34522750e-07  2.08428401e-06  1.96678299e-06
  1.53722900e-06 -2.83811234e-07  1.64460908e-07  3.84953995e-07 -1.59527656e-03
 -1.95414428e-04 -1.79563005e-04  2.47274380e-04 -2.31983558e-07 -1.07324146e-06
 -3.28701624e-07  5.95168777e-08  1.82361829e-07  7.53167178e-06  1.24600530e-06
  3.47995190e-06 -3.99509494e-06 -3.08312811e-07 -1.34429472e-07 -2.73649960e-07
  4.61048585e-07 -4.25804828e-07  4.44970776e-08  1.27948035e-04  2.69020931e-05
  3.88078370e-05  6.62808765e-06  9.70552577e-08 -6.35546439e-06  1.96673138e-07
 -3.21085540e-06  1.13203238e-07  2.91776366e-07 -1.17585468e-07  4.50182824e-08
 -1.29233648e-07 -2.03929260e-06  7.07127792e-07 -3.12540901e-07  7.87937994e-07
  2.95506620e-07  1.90776854e-07  3.32829236e-07 -6.18945767e-08  3.08300229e-09
  1.41231017e-07 -9.91364112e-06 -7.62416796e-06  1.46087546e-06 -1.01253109e-05
  2.26008303e-06  1.22467512e-05 -8.49624417e-07 -1.17098708e-06 -3.91715210e-06
 -9.46352454e-05  1.36320658e-05  2.26873748e-05  9.64937528e-05 -5.57933413e-07
 -1.90732008e-06  9.91434637e-07 -9.51837482e-06  5.31109472e-06  5.36381623e-06
  1.08717737e-04  1.69091731e-04  2.00399485e-04 -2.78067005e-05  3.82466080e-06
 -1.02978481e-05  4.32876349e-06  3.64500427e-06 -1.54747468e-05  5.91375557e-06
 -3.29029020e-06 -3.56617973e-06  1.89215152e-07  1.27942633e-05  9.63876104e-06
  3.96593714e-05 -5.48735776e-06 -1.72976755e-05 -1.74141099e-05 -2.82232333e-04
  6.71966197e-05  5.06620546e-05 -2.62078841e-04  5.01135981e-06 -7.65734988e-05
 -2.21753685e-05 -2.23489246e-05  3.25293337e-05 -1.02535945e-04 -4.90216109e-05
 -4.98899910e-05  7.15407870e-05  2.96083041e-05  2.55060882e-05  3.22428030e-05
  2.06929888e-06 -3.48572297e-05 -3.85492548e-05 -3.67089488e-04 -5.04009005e-04
 -5.08229463e-04  6.62285452e-04  3.82132371e-06 -1.03721867e-05  1.04239459e-05
  1.11556843e-05 -6.05293736e-06  6.26040891e-06 -7.99234821e-07 -1.63084088e-07
  5.74935019e-06  2.69565453e-05  2.73323311e-05  7.90477241e-06  1.28739272e-05
 -1.67382382e-05 -1.95541098e-05 -3.89191160e-04  1.28031428e-04  1.32367771e-04
 -8.65758543e-05  2.26903690e-06  1.23485226e-05  2.52599694e-06  3.05486883e-06
  1.26393113e-06 -9.67984730e-05 -6.40015065e-05 -7.42999697e-05 -2.27954057e-05
  4.11786702e-06  4.23211481e-06 -9.93378428e-06 -3.28162088e-06  5.42523047e-06
  4.78696682e-06  2.62270261e-04  1.27674939e-05  1.08148088e-05 -1.75265236e-04
 -5.42006081e-06 -3.76090091e-05 -4.24279654e-07  3.05552651e-06 -2.79910000e-07
  2.18211053e-06  4.60955902e-06  4.27214910e-06 -9.95997239e-01 -1.51480046e-02
  2.31774647e-05  2.34306830e-05 -3.40362384e-05  2.10719703e-02 -8.33963646e-06
 -8.36280616e-06  1.21562834e-05 -1.88980383e-03 -3.71872703e-05 -3.77650483e-05
  5.50535166e-05 -7.51952681e-03 -7.51941255e-03 -7.51498677e-03  4.54396748e-06
 -6.54184864e-06 -6.62635446e-06  1.26192778e-03 -8.97631399e-05 -9.17108575e-05
  1.35493664e-04  4.32257500e-07  1.64692593e-06  2.81180313e-07  2.07561882e-07
 -2.82155273e-07 -1.67636334e-05 -4.34754336e-06  6.51356087e-07  5.52766862e-06
  8.02798350e-07  5.48594685e-07  5.70097994e-07  2.94611095e-08  5.80716608e-08
 -1.13540300e-07 -9.34882981e-05 -1.20887565e-05  1.90861275e-05  8.17536650e-06
  2.75753766e-07 -1.08238303e-05  2.22783455e-07  1.94459249e-07  5.38367488e-07
 -2.29959718e-06 -8.58050583e-07  1.20392057e-05  4.52091613e-06  5.52744020e-06
 -5.51075625e-06 -3.68410535e-05  6.81081298e-07  1.08970161e-05 -6.73223642e-06
 -6.41617466e-06  1.54153310e-05  3.19089673e-05  3.02372234e-04  2.52916338e-04
 -5.70727605e-04 -4.98129973e-06 -1.72867698e-06 -7.08925819e-06 -1.11572896e-05
  1.83664417e-05  1.65626720e-05  7.31493009e-03 -7.08541379e-04 -1.50531168e-03