Generated by Psi4
     FORCE                           RHF                       TESTBAS
Number of atoms                            I               23
Charge                                     I                0
Multiplicity                               I                1
Number of electrons                        I               82
Number of alpha electrons                  I               41
Number of beta electrons                   I               41
Number of basis functions                  I              233
Number of independent functions            I              233
Atomic numbers                             I   N=          23
           6           6           6           1           1           7
           6           6           6           6           6           1
           6           1           1           1           1           1
           1           1           9           1           1
Nuclear charges                            R   N=          23
  6.00000000e+00  6.00000000e+00  6.00000000e+00  1.00000000e+00  1.00000000e+00
  7.00000000e+00  6.00000000e+00  6.00000000e+00  6.00000000e+00  6.00000000e+00
  6.00000000e+00  1.00000000e+00  6.00000000e+00  1.00000000e+00  1.00000000e+00
  1.00000000e+00  1.00000000e+00  1.00000000e+00  1.00000000e+00  1.00000000e+00
  9.00000000e+00  1.00000000e+00  1.00000000e+00
Current cartesian coordinates              R   N=          69
  4.23939321e-01 -8.97733995e-01  5.44685519e-01 -1.01390221e+00 -2.31545252e+00
  2.57293605e+00 -3.86300319e+00 -1.61467688e+00  2.79184551e+00 -1.18680481e-01
 -2.00236964e+00  4.42093139e+00 -8.91856661e-01 -4.35472623e+00  2.19682583e+00
 -5.27094254e+00 -3.27439010e+00  4.51522898e+00  2.08075257e+00  1.08243046e+00
  1.14651857e+00  3.37906318e+00  2.41683619e+00 -7.27986074e-01  2.99401156e+00
  1.73970978e+00 -3.23309374e+00  1.37850834e+00 -2.11649575e-01 -3.92326397e+00
  1.06350077e-01 -1.51960229e+00 -2.01635422e+00  4.66721089e+00  3.94521788e+00
 -2.66267613e-01 -4.26143723e+00  1.12854241e+00  3.61531342e+00 -4.71914373e+00
 -1.86000712e+00  9.15743173e-01 -3.46255196e+00  1.45099076e+00  5.50617150e+00
 -6.28250672e+00  1.56112478e+00  3.69443095e+00 -3.34859570e+00  2.44925410e+00
  2.31082674e+00  2.37272405e+00  1.59415178e+00  3.11555250e+00  1.14169171e+00
 -6.91651923e-01 -5.90365028e+00 -1.14810046e+00 -3.06303849e+00 -2.53753714e+00
  4.25068322e+00  3.02188542e+00 -5.07729674e+00 -4.61831612e+00 -3.09188233e+00
  6.31998321e+00 -5.06205417e+00 -5.12547758e+00  4.02698617e+00
Integer atomic weights                     I   N=          23
          12          12          12           1           1          14
          12          12          12          12          12           1
          12           1           1           1           1           1
           1           1          18           1           1
Real atomic weights                        R   N=          23
  1.20000000e+01  1.20000000e+01  1.20000000e+01  1.00782503e+00  1.00782503e+00
  1.40030740e+01  1.20000000e+01  1.20000000e+01  1.20000000e+01  1.20000000e+01
  1.20000000e+01  1.00782503e+00  1.20000000e+01  1.00782503e+00  1.00782503e+00
  1.00782503e+00  1.00782503e+00  1.00782503e+00  1.00782503e+00  1.00782503e+00
  1.89984032e+01  1.00782503e+00  1.00782503e+00
Number of primitive shells                 I              235
Number of contracted shells                I              112
Pure/Cartesian d shells                    I                1
Pure/Cartesian f shells                    I                1
Highest angular momentum                   I                2
Largest degree of contraction              I                6
Shell types                                I   N=         112
           0           0           1           0           1           2
           0           1           0           0           1           0
           1           2           0           1           0           0
           1           0           1           2           0           1
           0           0           0           0           0           0
           1           0           1           2           0           1
           0           0           1           0           1           2
           0           1           0           0           1           0
           1           2           0           1           0           0
           1           0           1           2           0           1
           0           0           1           0           1           2
           0           1           0           0           1           0
           1           2           0           1           0           0
           0           0           1           0           1           2
           0           1           0           0           0           0
           0           0           0           0           0           0
           0           0           0           0           0           0
           1           0           1           2           0           1
           0           0           0           0
Number of primitives per shell             I   N=         112
           6           3           3           1           1           1
           1           1           6           3           3           1
           1           1           1           1           6           3
           3           1           1           1           1           1
           3           1           3           1           6           3
           3           1           1           1           1           1
           6           3           3           1           1           1
           1           1           6           3           3           1
           1           1           1           1           6           3
           3           1           1           1           1           1
           6           3           3           1           1           1
           1           1           6           3           3           1
           1           1           1           1           3           1
           6           3           3           1           1           1
           1           1           3           1           3           1
           3           1           3           1           3           1
           3           1           3           1           6           3
           3           1           1           1           1           1
           3           1           3           1
Shell to atom map                          I   N=         112
           1           1           1           1           1           1
           1           1           2           2           2           2
           2           2           2           2           3           3
           3           3           3           3           3           3
           4           4           5           5           6           6
           6           6           6           6           6           6
           7           7           7           7           7           7
           7           7           8           8           8           8
           8           8           8           8           9           9
           9           9           9           9           9           9
          10          10          10          10          10          10
          10          10          11          11          11          11
          11          11          11          11          12          12
          13          13          13          13          13          13
          13          13          14          14          15          15
          16          16          17          17          18          18
          19          19          20          20          21          21
          21          21          21          21          21          21
          22          22          23          23
Primitive exponents                        R   N=         235
  3.04752490e+03  4.57369510e+02  1.03948690e+02  2.92101550e+01  9.28666300e+00
  3.16392700e+00  7.86827240e+00  1.88128850e+00  5.44249300e-01  7.86827240e+00
  1.88128850e+00  5.44249300e-01  1.68714400e-01  1.68714400e-01  8.00000000e-01
  4.38000000e-02  4.38000000e-02  3.04752490e+03  4.57369510e+02  1.03948690e+02
  2.92101550e+01  9.28666300e+00  3.16392700e+00  7.86827240e+00  1.88128850e+00
  5.44249300e-01  7.86827240e+00  1.88128850e+00  5.44249300e-01  1.68714400e-01
  1.68714400e-01  8.00000000e-01  4.38000000e-02  4.38000000e-02  3.04752490e+03
  4.57369510e+02  1.03948690e+02  2.92101550e+01  9.28666300e+00  3.16392700e+00
  7.86827240e+00  1.88128850e+00  5.44249300e-01  7.86827240e+00  1.88128850e+00
  5.44249300e-01  1.68714400e-01  1.68714400e-01  8.00000000e-01  4.38000000e-02
  4.38000000e-02  1.87311370e+01  2.82539370e+00  6.40121700e-01  1.61277800e-01
  1.87311370e+01  2.82539370e+00  6.40121700e-01  1.61277800e-01  4.17351100e+03
  6.27457900e+02  1.42902100e+02  4.02343300e+01  1.28202100e+01  4.39043700e+00
  1.16263580e+01  2.71628000e+00  7.72218000e-01  1.16263580e+01  2.71628000e+00
  7.72218000e-01  2.12031300e-01  2.12031300e-01  8.00000000e-01  6.39000000e-02
  6.39000000e-02  3.04752490e+03  4.57369510e+02  1.03948690e+02  2.92101550e+01
  9.28666300e+00  3.16392700e+00  7.86827240e+00  1.88128850e+00  5.44249300e-01
  7.86827240e+00  1.88128850e+00  5.44249300e-01  1.68714400e-01  1.68714400e-01
  8.00000000e-01  4.38000000e-02  4.38000000e-02  3.04752490e+03  4.57369510e+02
  1.03948690e+02  2.92101550e+01  9.28666300e+00  3.16392700e+00  7.86827240e+00
  1.88128850e+00  5.44249300e-01  7.86827240e+00  1.88128850e+00  5.44249300e-01
  1.68714400e-01  1.68714400e-01  8.00000000e-01  4.38000000e-02  4.38000000e-02
  3.04752490e+03  4.57369510e+02  1.03948690e+02  2.92101550e+01  9.28666300e+00
  3.16392700e+00  7.86827240e+00  1.88128850e+00  5.44249300e-01  7.86827240e+00
  1.88128850e+00  5.44249300e-01  1.68714400e-01  1.68714400e-01  8.00000000e-01
  4.38000000e-02  4.38000000e-02  3.04752490e+03  4.57369510e+02  1.03948690e+02
  2.92101550e+01  9.28666300e+00  3.16392700e+00  7.86827240e+00  1.88128850e+00
  5.44249300e-01  7.86827240e+00  1.88128850e+00  5.44249300e-01  1.68714400e-01
  1.68714400e-01  8.00000000e-01  4.38000000e-02  4.38000000e-02  3.04752490e+03
  4.57369510e+02  1.03948690e+02  2.92101550e+01  9.28666300e+00  3.16392700e+00
  7.86827240e+00  1.88128850e+00  5.44249300e-01  7.86827240e+00  1.88128850e+00
  5.44249300e-01  1.68714400e-01  1.68714400e-01  8.00000000e-01  4.38000000e-02
  4.38000000e-02  1.87311370e+01  2.82539370e+00  6.40121700e-01  1.61277800e-01
  3.04752490e+03  4.57369510e+02  1.03948690e+02  2.92101550e+01  9.28666300e+00
  3.16392700e+00  7.86827240e+00  1.88128850e+00  5.44249300e-01  7.86827240e+00
  1.88128850e+00  5.44249300e-01  1.68714400e-01  1.68714400e-01  8.00000000e-01
  4.38000000e-02  4.38000000e-02  1.87311370e+01  2.82539370e+00  6.40121700e-01
  1.61277800e-01  1.87311370e+01  2.82539370e+00  6.40121700e-01  1.61277800e-01
  1.87311370e+01  2.82539370e+00  6.40121700e-01  1.61277800e-01  1.87311370e+01
  2.82539370e+00  6.40121700e-01  1.61277800e-01  1.87311370e+01  2.82539370e+00
  6.40121700e-01  1.61277800e-01  1.87311370e+01  2.82539370e+00  6.40121700e-01
  1.61277800e-01  1.87311370e+01  2.82539370e+00  6.40121700e-01  1.61277800e-01
  7.00171309e+03  1.05136609e+03  2.39285690e+02  6.73974453e+01  2.15199573e+01
  7.40310130e+00  2.08479528e+01  4.80830834e+00  1.34406986e+00  2.08479528e+01
  4.80830834e+00  1.34406986e+00  3.58151393e-01  3.58151393e-01  8.00000000e-01
  1.07600000e-01  1.07600000e-01  1.87311370e+01  2.82539370e+00  6.40121700e-01
  1.61277800e-01  1.87311370e+01  2.82539370e+00  6.40121700e-01  1.61277800e-01
Contraction coefficients                   R   N=         235
  1.83470016e-03  1.40373012e-02  6.88426061e-02  2.32184421e-01  4.67941342e-01
  3.62312032e-01 -1.19332409e-01 -1.60854212e-01  1.14345648e+00  6.89990956e-02
  3.16423980e-01  7.44308252e-01  1.00000000e+00  1.00000000e+00  1.00000000e+00
  1.00000000e+00  1.00000000e+00  1.83470016e-03  1.40373012e-02  6.88426061e-02
  2.32184421e-01  4.67941342e-01  3.62312032e-01 -1.19332409e-01 -1.60854212e-01
  1.14345648e+00  6.89990956e-02  3.16423980e-01  7.44308252e-01  1.00000000e+00
  1.00000000e+00  1.00000000e+00  1.00000000e+00  1.00000000e+00  1.83470016e-03
  1.40373012e-02  6.88426061e-02  2.32184421e-01  4.67941342e-01  3.62312032e-01
 -1.19332409e-01 -1.60854212e-01  1.14345648e+00  6.89990956e-02  3.16423980e-01
  7.44308252e-01  1.00000000e+00  1.00000000e+00  1.00000000e+00  1.00000000e+00
  1.00000000e+00  3.34945995e-02  2.34726947e-01  8.13757318e-01  1.00000000e+00
  3.34945995e-02  2.34726947e-01  8.13757318e-01  1.00000000e+00  1.83479944e-03
  1.39949958e-02  6.85869792e-02  2.32240930e-01  4.69069858e-01  3.60454891e-01
 -1.14961023e-01 -1.69118034e-01  1.14585223e+00  6.75800232e-02  3.23907111e-01
  7.40895255e-01  1.00000000e+00  1.00000000e+00  1.00000000e+00  1.00000000e+00
  1.00000000e+00  1.83470016e-03  1.40373012e-02  6.88426061e-02  2.32184421e-01
  4.67941342e-01  3.62312032e-01 -1.19332409e-01 -1.60854212e-01  1.14345648e+00
  6.89990956e-02  3.16423980e-01  7.44308252e-01  1.00000000e+00  1.00000000e+00
  1.00000000e+00  1.00000000e+00  1.00000000e+00  1.83470016e-03  1.40373012e-02
  6.88426061e-02  2.32184421e-01  4.67941342e-01  3.62312032e-01 -1.19332409e-01
 -1.60854212e-01  1.14345648e+00  6.89990956e-02  3.16423980e-01  7.44308252e-01
  1.00000000e+00  1.00000000e+00  1.00000000e+00  1.00000000e+00  1.00000000e+00
  1.83470016e-03  1.40373012e-02  6.88426061e-02  2.32184421e-01  4.67941342e-01
  3.62312032e-01 -1.19332409e-01 -1.60854212e-01  1.14345648e+00  6.89990956e-02
  3.16423980e-01  7.44308252e-01  1.00000000e+00  1.00000000e+00  1.00000000e+00
  1.00000000e+00  1.00000000e+00  1.83470016e-03  1.40373012e-02  6.88426061e-02
  2.32184421e-01  4.67941342e-01  3.62312032e-01 -1.19332409e-01 -1.60854212e-01
  1.14345648e+00  6.89990956e-02  3.16423980e-01  7.44308252e-01  1.00000000e+00
  1.00000000e+00  1.00000000e+00  1.00000000e+00  1.00000000e+00  1.83470016e-03
  1.40373012e-02  6.88426061e-02  2.32184421e-01  4.67941342e-01  3.62312032e-01
 -1.19332409e-01 -1.60854212e-01  1.14345648e+00  6.89990956e-02  3.16423980e-01
  7.44308252e-01  1.00000000e+00  1.00000000e+00  1.00000000e+00  1.00000000e+00
  1.00000000e+00  3.34945995e-02  2.34726947e-01  8.13757318e-01  1.00000000e+00
  1.83470016e-03  1.40373012e-02  6.88426061e-02  2.32184421e-01  4.67941342e-01
  3.62312032e-01 -1.19332409e-01 -1.60854212e-01  1.14345648e+00  6.89990956e-02
  3.16423980e-01  7.44308252e-01  1.00000000e+00  1.00000000e+00  1.00000000e+00
  1.00000000e+00  1.00000000e+00  3.34945995e-02  2.34726947e-01  8.13757318e-01
  1.00000000e+00  3.34945995e-02  2.34726947e-01  8.13757318e-01  1.00000000e+00
  3.34945995e-02  2.34726947e-01  8.13757318e-01  1.00000000e+00  3.34945995e-02
  2.34726947e-01  8.13757318e-01  1.00000000e+00  3.34945995e-02  2.34726947e-01
  8.13757318e-01  1.00000000e+00  3.34945995e-02  2.34726947e-01  8.13757318e-01
  1.00000000e+00  3.34945995e-02  2.34726947e-01  8.13757318e-01  1.00000000e+00
  1.81961690e-03  1.39160796e-02  6.84053245e-02  2.33185760e-01  4.71267439e-01
  3.56618546e-01 -1.08506975e-01 -1.46451658e-01  1.12868858e+00  7.16287242e-02
  3.45912103e-01  7.22469956e-01  1.00000000e+00  1.00000000e+00  1.00000000e+00
  1.00000000e+00  1.00000000e+00  3.34945995e-02  2.34726947e-01  8.13757318e-01
  1.00000000e+00  3.34945995e-02  2.34726947e-01  8.13757318e-01  1.00000000e+00
Coordinates of each shell                  R   N=         336
  4.23939321e-01 -8.97733995e-01  5.44685519e-01  4.23939321e-01 -8.97733995e-01
  5.44685519e-01  4.23939321e-01 -8.97733995e-01  5.44685519e-01  4.23939321e-01
 -8.97733995e-01  5.44685519e-01  4.23939321e-01 -8.97733995e-01  5.44685519e-01
  4.23939321e-01 -8.97733995e-01  5.44685519e-01  4.23939321e-01 -8.97733995e-01
  5.44685519e-01  4.23939321e-01 -8.97733995e-01  5.44685519e-01 -1.01390221e+00
 -2.31545252e+00  2.57293605e+00 -1.01390221e+00 -2.31545252e+00  2.57293605e+00
 -1.01390221e+00 -2.31545252e+00  2.57293605e+00 -1.01390221e+00 -2.31545252e+00
  2.57293605e+00 -1.01390221e+00 -2.31545252e+00  2.57293605e+00 -1.01390221e+00
 -2.31545252e+00  2.57293605e+00 -1.01390221e+00 -2.31545252e+00  2.57293605e+00
 -1.01390221e+00 -2.31545252e+00  2.57293605e+00 -3.86300319e+00 -1.61467688e+00
  2.79184551e+00 -3.86300319e+00 -1.61467688e+00  2.79184551e+00 -3.86300319e+00
 -1.61467688e+00  2.79184551e+00 -3.86300319e+00 -1.61467688e+00  2.79184551e+00
 -3.86300319e+00 -1.61467688e+00  2.79184551e+00 -3.86300319e+00 -1.61467688e+00
  2.79184551e+00 -3.86300319e+00 -1.61467688e+00  2.79184551e+00 -3.86300319e+00
 -1.61467688e+00  2.79184551e+00 -1.18680481e-01 -2.00236964e+00  4.42093139e+00
 -1.18680481e-01 -2.00236964e+00  4.42093139e+00 -8.91856661e-01 -4.35472623e+00
  2.19682583e+00 -8.91856661e-01 -4.35472623e+00  2.19682583e+00 -5.27094254e+00
 -3.27439010e+00  4.51522898e+00 -5.27094254e+00 -3.27439010e+00  4.51522898e+00
 -5.27094254e+00 -3.27439010e+00  4.51522898e+00 -5.27094254e+00 -3.27439010e+00
  4.51522898e+00 -5.27094254e+00 -3.27439010e+00  4.51522898e+00 -5.27094254e+00
 -3.27439010e+00  4.51522898e+00 -5.27094254e+00 -3.27439010e+00  4.51522898e+00
 -5.27094254e+00 -3.27439010e+00  4.51522898e+00  2.08075257e+00  1.08243046e+00
  1.14651857e+00  2.08075257e+00  1.08243046e+00  1.14651857e+00  2.08075257e+00
  1.08243046e+00  1.14651857e+00  2.08075257e+00  1.08243046e+00  1.14651857e+00
  2.08075257e+00  1.08243046e+00  1.14651857e+00  2.08075257e+00  1.08243046e+00
  1.14651857e+00  2.08075257e+00  1.08243046e+00  1.14651857e+00  2.08075257e+00
  1.08243046e+00  1.14651857e+00  3.37906318e+00  2.41683619e+00 -7.27986074e-01
  3.37906318e+00  2.41683619e+00 -7.27986074e-01  3.37906318e+00  2.41683619e+00
 -7.27986074e-01  3.37906318e+00  2.41683619e+00 -7.27986074e-01  3.37906318e+00
  2.41683619e+00 -7.27986074e-01  3.37906318e+00  2.41683619e+00 -7.27986074e-01
  3.37906318e+00  2.41683619e+00 -7.27986074e-01  3.37906318e+00  2.41683619e+00
 -7.27986074e-01  2.99401156e+00  1.73970978e+00 -3.23309374e+00  2.99401156e+00
  1.73970978e+00 -3.23309374e+00  2.99401156e+00  1.73970978e+00 -3.23309374e+00
  2.99401156e+00  1.73970978e+00 -3.23309374e+00  2.99401156e+00  1.73970978e+00
 -3.23309374e+00  2.99401156e+00  1.73970978e+00 -3.23309374e+00  2.99401156e+00
  1.73970978e+00 -3.23309374e+00  2.99401156e+00  1.73970978e+00 -3.23309374e+00
  1.37850834e+00 -2.11649575e-01 -3.92326397e+00  1.37850834e+00 -2.11649575e-01
 -3.92326397e+00  1.37850834e+00 -2.11649575e-01 -3.92326397e+00  1.37850834e+00
 -2.11649575e-01 -3.92326397e+00  1.37850834e+00 -2.11649575e-01 -3.92326397e+00
  1.37850834e+00 -2.11649575e-01 -3.92326397e+00  1.37850834e+00 -2.11649575e-01
 -3.92326397e+00  1.37850834e+00 -2.11649575e-01 -3.92326397e+00  1.06350077e-01
 -1.51960229e+00 -2.01635422e+00  1.06350077e-01 -1.51960229e+00 -2.01635422e+00
  1.06350077e-01 -1.51960229e+00 -2.01635422e+00  1.06350077e-01 -1.51960229e+00
 -2.01635422e+00  1.06350077e-01 -1.51960229e+00 -2.01635422e+00  1.06350077e-01
 -1.51960229e+00 -2.01635422e+00  1.06350077e-01 -1.51960229e+00 -2.01635422e+00
  1.06350077e-01 -1.51960229e+00 -2.01635422e+00  4.66721089e+00  3.94521788e+00
 -2.66267613e-01  4.66721089e+00  3.94521788e+00 -2.66267613e-01 -4.26143723e+00
  1.12854241e+00  3.61531342e+00 -4.26143723e+00  1.12854241e+00  3.61531342e+00
 -4.26143723e+00  1.12854241e+00  3.61531342e+00 -4.26143723e+00  1.12854241e+00
  3.61531342e+00 -4.26143723e+00  1.12854241e+00  3.61531342e+00 -4.26143723e+00
  1.12854241e+00  3.61531342e+00 -4.26143723e+00  1.12854241e+00  3.61531342e+00
 -4.26143723e+00  1.12854241e+00  3.61531342e+00 -4.71914373e+00 -1.86000712e+00
  9.15743173e-01 -4.71914373e+00 -1.86000712e+00  9.15743173e-01 -3.46255196e+00
  1.45099076e+00  5.50617150e+00 -3.46255196e+00  1.45099076e+00  5.50617150e+00
 -6.28250672e+00  1.56112478e+00  3.69443095e+00 -6.28250672e+00  1.56112478e+00
  3.69443095e+00 -3.34859570e+00  2.44925410e+00  2.31082674e+00 -3.34859570e+00
  2.44925410e+00  2.31082674e+00  2.37272405e+00  1.59415178e+00  3.11555250e+00
  2.37272405e+00  1.59415178e+00  3.11555250e+00  1.14169171e+00 -6.91651923e-01
 -5.90365028e+00  1.14169171e+00 -6.91651923e-01 -5.90365028e+00 -1.14810046e+00
 -3.06303849e+00 -2.53753714e+00 -1.14810046e+00 -3.06303849e+00 -2.53753714e+00
  4.25068322e+00  3.02188542e+00 -5.07729674e+00  4.25068322e+00  3.02188542e+00
 -5.07729674e+00  4.25068322e+00  3.02188542e+00 -5.07729674e+00  4.25068322e+00
  3.02188542e+00 -5.07729674e+00  4.25068322e+00  3.02188542e+00 -5.07729674e+00
  4.25068322e+00  3.02188542e+00 -5.07729674e+00  4.25068322e+00  3.02188542e+00
 -5.07729674e+00  4.25068322e+00  3.02188542e+00 -5.07729674e+00 -4.61831612e+00
 -3.09188233e+00  6.31998321e+00 -4.61831612e+00 -3.09188233e+00  6.31998321e+00
 -5.06205417e+00 -5.12547758e+00  4.02698617e+00 -5.06205417e+00 -5.12547758e+00
  4.02698617e+00
Total Energy                               R     -5.047964169128475e+02
Alpha Orbital Energies                     R   N=         233
 -2.47232212e+01 -1.43270671e+01 -1.02820183e+01 -1.02263014e+01 -1.02108328e+01
 -1.02093480e+01 -1.02090233e+01 -1.02086419e+01 -1.02082521e+01 -1.01984729e+01
 -1.01797410e+01 -1.22682658e+00 -8.97189313e-01 -8.73441844e-01 -7.90396292e-01
 -7.66487218e-01 -7.38506879e-01 -6.91364439e-01 -6.35476894e-01 -6.12943393e-01
 -5.84922887e-01 -5.50796229e-01 -5.09402738e-01 -4.96491425e-01 -4.86694224e-01
 -4.69879687e-01 -4.62293835e-01 -4.53628996e-01 -4.42182448e-01 -4.31175806e-01
 -4.18913504e-01 -3.92521571e-01 -3.81416007e-01 -3.73516087e-01 -3.68749646e-01
 -3.56512455e-01 -3.48908889e-01 -3.42664531e-01 -2.70285460e-01 -2.59862207e-01
 -2.37883287e-01 -2.78379515e-02 -1.83279492e-02 -3.80888771e-03  1.05596358e-02
  1.22921611e-02  2.79426298e-02  3.03088046e-02  3.70723073e-02  4.11696271e-02
  5.19924289e-02  6.20951429e-02  6.28006587e-02  6.88431641e-02  7.36399657e-02
  9.21275709e-02  9.29667475e-02  9.30983599e-02  1.00739703e-01  1.10408226e-01
  1.17421063e-01  1.20820521e-01  1.26228792e-01  1.33446160e-01  1.36272102e-01
  1.40506314e-01  1.46221268e-01  1.53486349e-01  1.58856779e-01  1.63792436e-01
  1.72726822e-01  1.74083875e-01  1.83726356e-01  1.86795600e-01  1.93126802e-01
  1.99035186e-01  2.02563817e-01  2.04728211e-01  2.07647194e-01  2.15477327e-01
  2.20235421e-01  2.26878879e-01  2.32781282e-01  2.37963438e-01  2.44018697e-01
  2.49188751e-01  2.50365781e-01  2.59258324e-01  2.67955153e-01  2.74079728e-01
  2.78786561e-01  2.85725003e-01  2.91692425e-01  2.99737944e-01  3.04582907e-01
  3.13636400e-01  3.24079754e-01  3.42324998e-01  3.49230302e-01  3.56258562e-01
  3.60932342e-01  3.67927886e-01  3.74807683e-01  3.78079571e-01  3.81752433e-01
  3.93485897e-01  4.16476814e-01  4.50599128e-01  4.60527209e-01  5.76503247e-01
  5.95607670e-01  6.40588076e-01  6.43087807e-01  6.66109198e-01  6.75734476e-01
  6.79997262e-01  6.87471351e-01  6.97947997e-01  7.14139251e-01  7.33180025e-01
  7.37203844e-01  7.50464384e-01  7.58066351e-01  7.61040380e-01  7.78082997e-01
  7.89247917e-01  7.95181055e-01  8.07738163e-01  8.21375422e-01  8.66843388e-01
  8.83449453e-01  8.91417471e-01  9.24220397e-01  9.33047560e-01  9.42994732e-01
  9.59769353e-01  9.71739310e-01  9.78001517e-01  9.99136491e-01  1.01355530e+00
  1.01848435e+00  1.04123136e+00  1.05102216e+00  1.06111799e+00  1.08434884e+00
  1.08756086e+00  1.10634144e+00  1.12720693e+00  1.14193574e+00  1.15703852e+00
  1.17241119e+00  1.18599308e+00  1.19739368e+00  1.23259377e+00  1.23888219e+00
  1.25298074e+00  1.29578390e+00  1.30532526e+00  1.33222618e+00  1.39919306e+00
  1.41814953e+00  1.43251249e+00  1.44799968e+00  1.46724148e+00  1.47899917e+00
  1.49622200e+00  1.56049374e+00  1.56471743e+00  1.62648746e+00  1.63905727e+00
  1.68492386e+00  1.71765367e+00  1.72805769e+00  1.78602074e+00  1.79649321e+00
  1.81152100e+00  1.82144294e+00  1.83049523e+00  1.84939796e+00  1.86504325e+00
  1.86855768e+00  1.90443472e+00  1.93970321e+00  1.95544750e+00  1.98390779e+00
  1.99341240e+00  1.99956447e+00  2.02551311e+00  2.05889275e+00  2.07847607e+00
  2.09893039e+00  2.12134091e+00  2.14213512e+00  2.16513609e+00  2.19116816e+00
  2.21256658e+00  2.21964744e+00  2.23092684e+00  2.27925050e+00  2.29459690e+00
  2.31337188e+00  2.32084584e+00  2.34121458e+00  2.40117762e+00  2.41058720e+00
  2.50090027e+00  2.51926519e+00  2.56957953e+00  2.60000942e+00  2.60656878e+00
  2.63212223e+00  2.65358832e+00  2.71755691e+00  2.74095715e+00  2.75695914e+00
  2.76489410e+00  2.83130954e+00  2.92544866e+00  2.95017087e+00  3.14015954e+00
  3.20823523e+00  3.43632298e+00  3.98211952e+00  4.23034318e+00  4.23869541e+00
  4.27915952e+00  4.30775422e+00  4.37648673e+00  4.38833693e+00  4.51430374e+00
  4.60852595e+00  4.73411246e+00  5.94752434e+00
Alpha MO coefficients                      R   N=       54289
 -9.52204032e-06 -4.81949643e-05 -1.33820832e-05 -1.27871731e-05  1.91178249e-05
  8.90335430e-04  4.67702767e-04  4.73832333e-04 -6.84669646e-04 -1.14984963e-05
 -8.69710984e-06 -2.79036255e-06  8.26174523e-06  2.09995497e-06  3.64223886e-06
  3.76073776e-03  1.65818892e-03  1.72587474e-03 -2.50436485e-03 -1.32908357e-06
 -1.38266306e-05  4.63152145e-06  5.38944138e-06 -8.00488810e-06  3.97125005e-04
  1.10819774e-04  9.63542756e-05 -1.40722258e-04  3.15348358e-06  2.32563588e-06
  3.95359198e-06  2.64958214e-06 -4.64128860e-06 -5.06055139e-06  4.40489262e-03
  5.62074508e-04  5.10492207e-04 -7.70057537e-04 -3.31465376e-07 -1.69695954e-06
 -1.98859888e-06  4.77602830e-07 -1.24028140e-06 -1.17138580e-05  2.91589138e-06
  1.35946711e-05  1.45877466e-05 -1.97085833e-06  1.05416514e-06 -3.63619717e-07
 -2.54174863e-07 -5.35936824e-07 -8.67710727e-07  3.72919797e-04 -6.50994257e-05
  8.63491263e-05  1.11824676e-04 -1.85857075e-06 -2.71601540e-05 -3.00492517e-06
 -1.95955564e-05 -1.45962659e-06 -4.91778455e-06 -6.24881882e-07 -8.99819186e-07
 -1.01280346e-07  2.75685472e-05  5.01278894e-06  1.16834166e-06  4.82161529e-07
 -2.88785307e-06 -3.86988629e-06 -2.98399892e-06  5.55364811e-08 -1.33979331e-06
  2.10715967e-07 -3.22182344e-05  3.39194234e-05 -4.00890555e-05  8.77636251e-06
  1.03838690e-05  4.40688403e-05 -7.88621848e-07  1.49176440e-06  1.74100878e-05
 -1.73577538e-03 -4.02888537e-05  3.17008177e-05  8.77614227e-04  1.45555151e-05
  1.54701372e-05  1.21659323e-05  8.74678935e-06 -5.94702834e-06 -6.48846840e-06
 -3.89353040e-03  7.19875869e-04  9.00581700e-04  6.24191850e-04 -2.15162779e-05
  1.28175503e-05  2.83658983e-05  3.12009950e-05 -1.95548826e-05  2.02482535e-03
 -1.18995551e-03 -1.39269808e-03 -1.51307783e-04 -4.65093021e-05 -4.39679832e-05
 -1.21269027e-04 -1.03383519e-05  3.47290738e-05  3.10928240e-05  3.61812770e-03
 -7.28700607e-04 -9.09110237e-04 -7.79788851e-04 -3.47921714e-05 -1.44993988e-05
  3.15481020e-04  3.22098876e-04 -4.63149607e-04 -5.45069881e-04  1.53333416e-03
  1.56826358e-03 -2.25677766e-03  1.30144895e-04  1.41592656e-04  4.13738662e-04
  2.89800040e-04 -4.04919013e-04 -4.10891897e-04 -6.39699778e-03  1.55728222e-03
  1.57928758e-03 -2.23184436e-03 -2.13929073e-05  1.37702105e-05  1.41974866e-05
  1.23542324e-05 -4.25729095e-05  2.00785429e-03  4.51237672e-05  2.29844572e-04
  1.81752877e-03 -7.41388956e-05 -8.15036688e-05 -5.62335684e-05 -4.80212956e-05
  3.36419816e-05  3.62791845e-05  3.55921124e-03  5.16739994e-04  7.29163037e-04
  1.11724007e-03  1.02220702e-05  4.34346613e-05 -1.22431483e-05 -1.32431455e-05
 -1.03419581e-07 -1.72982386e-03 -5.62981771e-04 -6.62587450e-04  2.15745917e-05
  9.60749402e-06  9.26437685e-06  2.28864928e-05  2.65856267e-06 -6.89242497e-06
 -6.15942633e-06 -3.89633815e-03 -3.46423326e-04 -5.33776581e-04 -1.23531529e-03
  7.93305058e-05  7.89013730e-04  2.98087088e-07  1.77772650e-06 -4.63347404e-07
 -2.79994579e-06  1.75293356e-06 -1.96599961e-05 -1.10303381e-06  2.18351366e-05
 -1.06907234e-05  8.40017367e-07 -1.04433231e-06  4.45468031e-07  1.55099818e-06
 -7.58510840e-07 -4.08939124e-07 -3.53949989e-04 -2.79148180e-05  7.62618019e-05
  2.97964286e-05 -6.16102973e-07  2.06555758e-05 -8.79836178e-09  1.38054025e-05
  2.19881887e-07  1.67086586e-06 -3.27591245e-06  8.74760930e-06 -1.23752653e-05
 -1.54860225e-04  7.94271617e-05  7.88928133e-04 -1.12427965e-05 -1.52230070e-04
  9.92696213e-01  1.82424364e-02 -4.57273438e-04 -4.66430530e-04  6.70968310e-04
  1.97021937e-02  8.86320623e-04  9.03260753e-04 -1.29967548e-03 -9.35113435e-03
 -9.35448206e-03 -9.54402307e-03 -1.97622625e-04  3.04528901e-04  3.13384890e-04
 -5.33148550e-03  2.61721362e-06  4.17832796e-06 -4.09042344e-06 -7.30083759e-07
 -2.27724817e-05 -4.79649002e-07 -1.85445589e-05  9.67488298e-07  1.21108448e-05
 -6.88129892e-06 -6.04969197e-06  1.48801888e-05  2.58088716e-05  3.08619339e-04
  2.57697413e-04 -5.77262963e-04 -4.61855162e-06 -1.57363307e-06 -6.47504414e-06
 -1.15474580e-05  1.82063920e-05  1.66418879e-05  6.90655002e-03  9.83913745e-05
 -5.20368060e-04  1.53420910e-03 -4.65378724e-06 -8.95462490e-05 -4.48782844e-05
 -2.06581248e-05  2.34969234e-05  7.02254106e-04  8.34353799e-05  3.14257016e-04
 -2.32683585e-04  4.97186654e-05  1.31066115e-05  3.63286680e-05  2.24079504e-05
 -3.78889720e-05 -2.05006683e-05 -5.41882687e-03 -1.56325872e-03 -9.40578118e-04
  2.37984064e-03  2.34975413e-05  1.63870926e-05  1.41864875e-04  1.47272715e-04
 -1.56676131e-04 -5.98948443e-04 -1.65847694e-04  1.72538284e-04 -2.62791826e-04
  1.35224585e-06 -3.42147805e-05 -2.44910390e-05 -6.15268207e-05  8.11321714e-05
  9.79185274e-05 -7.10767854e-03  1.15714521e-03  9.51592690e-05 -2.26305904e-03
 -3.21004248e-05  1.68918343e-04 -1.23872155e-05  2.04810670e-04 -9.92657830e-01