Generated by Psi4
     FORCE                           RHF                       TESTBAS
Number of atoms                            I               31
Charge                                     I                0
Multiplicity                               I                1
Number of electrons                        I              120
Number of alpha electrons                  I               60
Number of beta electrons                   I               60
Number of basis functions                  I              321
Number of independent functions            I              321
Atomic numbers                             I   N=          31
           6           6           6           7           6           6
           6           6           6           1           1           6
           1           8           1           6           6           1
           1          17           6           1           1           1
           1           1           1           1           1           1
           1
Nuclear charges                            R   N=          31
  6.00000000e+00  6.00000000e+00  6.00000000e+00  7.00000000e+00  6.00000000e+00
  6.00000000e+00  6.00000000e+00  6.00000000e+00  6.00000000e+00  1.00000000e+00
  1.00000000e+00  6.00000000e+00  1.00000000e+00  8.00000000e+00  1.00000000e+00
  6.00000000e+00  6.00000000e+00  1.00000000e+00  1.00000000e+00  1.70000000e+01
  6.00000000e+00  1.00000000e+00  1.00000000e+00  1.00000000e+00  1.00000000e+00
  1.00000000e+00  1.00000000e+00  1.00000000e+00  1.00000000e+00  1.00000000e+00
  1.00000000e+00
Current cartesian coordinates              R   N=          93
 -6.95176610e-01 -4.69941331e-01 -1.27634067e+00 -2.81242406e+00  1.08590291e+00
 -1.94113809e-01 -2.85279594e+00  1.80615793e+00  2.62108281e+00 -2.67991773e+00
 -4.95233431e-01  4.15830028e+00  1.68919476e+00 -7.02102440e-01 -1.37002264e-01
  3.59918217e+00 -2.13311252e+00 -1.25987991e+00  3.10625282e+00 -3.36718698e+00
 -3.53659889e+00  7.50037532e-01 -3.17015010e+00 -4.71289211e+00 -1.12497925e+00
 -1.71141985e+00 -3.58352944e+00  2.11402143e+00  2.77946991e-01  1.61425544e+00
  5.44701795e+00 -2.28493846e+00 -3.83554997e-01 -9.56025405e-01  3.99070599e+00
  3.24640199e+00 -4.77164157e+00  2.53093537e+00  2.90152628e+00 -4.53904212e+00
  1.78008289e+00 -1.56620048e+00 -2.96183253e+00 -1.51475962e+00 -4.47481659e+00
 -3.46713003e+00 -1.93004283e-01  6.78745375e+00 -2.22242065e+00  6.32927187e+00
  4.41305417e+00  5.57706550e-02  4.58198815e+00  1.53133988e+00  4.93050592e-01
  3.26789264e+00  4.55080596e+00  5.48880419e+00 -5.19138763e+00 -4.94945640e+00
 -3.41605188e-01  8.44097154e+00  5.03934268e+00 -3.24428732e+00  5.77290079e+00
  6.13307607e+00 -3.65633478e+00  7.04331220e+00  3.09200858e+00 -9.19738387e-01
 -1.26110764e+00  4.07636998e+00 -5.45796305e+00  3.76793278e-01  6.83959159e+00
 -2.36679959e+00  1.21203405e+00  7.87025251e+00 -3.30711169e+00 -2.01800449e+00
  7.74955496e+00  1.08384191e+00  7.79989596e+00  6.40353229e+00 -1.30218444e+00
  1.00832780e+01  5.85966353e+00  6.59495225e-01  9.08169804e+00  3.33967722e+00
  3.99643517e-01 -4.14290813e+00 -6.48405149e+00
Integer atomic weights                     I   N=          31
          12          12          12          14          12          12
          12          12          12           1           1          12
           1          15           1          12          12           1
           1          34          12           1           1           1
           1           1           1           1           1           1
           1
Real atomic weights                        R   N=          31
  1.20000000e+01  1.20000000e+01  1.20000000e+01  1.40030740e+01  1.20000000e+01
  1.20000000e+01  1.20000000e+01  1.20000000e+01  1.20000000e+01  1.00782503e+00
  1.00782503e+00  1.20000000e+01  1.00782503e+00  1.59949146e+01  1.00782503e+00
  1.20000000e+01  1.20000000e+01  1.00782503e+00  1.00782503e+00  3.49688527e+01
  1.20000000e+01  1.00782503e+00  1.00782503e+00  1.00782503e+00  1.00782503e+00
  1.00782503e+00  1.00782503e+00  1.00782503e+00  1.00782503e+00  1.00782503e+00
  1.00782503e+00
Number of primitive shells                 I              331
Number of contracted shells                I              154
Pure/Cartesian d shells                    I                1
Pure/Cartesian f shells                    I                1
Highest angular momentum                   I                2
Largest degree of contraction              I                6
Shell types                                I   N=         154
           0           0           1           0           1           2
           0           1           0           0           1           0
           1           2           0           1           0           0
           1           0           1           2           0           1
           0           0           1           0           1           2
           0           1           0           0           1           0
           1           2           0           1           0           0
           1           0           1           2           0           1
           0           0           1           0           1           2
           0           1           0           0           1           0
           1           2           0           1           0           0
           1           0           1           2           0           1
           0           0           0           0           0           0
           1           0           1           2           0           1
           0           0           0           0           1           0
           1           2           0           1           0           0
           0           0           1           0           1           2
           0           1           0           0           1           0
           1           2           0           1           0           0
           0           0           0           0           1           0
           1           0           1           2           0           1
           0           0           1           0           1           2
           0           1           0           0           0           0
           0           0           0           0           0           0
           0           0           0           0           0           0
           0           0           0           0
Number of primitives per shell             I   N=         154
           6           3           3           1           1           1
           1           1           6           3           3           1
           1           1           1           1           6           3
           3           1           1           1           1           1
           6           3           3           1           1           1
           1           1           6           3           3           1
           1           1           1           1           6           3
           3           1           1           1           1           1
           6           3           3           1           1           1
           1           1           6           3           3           1
           1           1           1           1           6           3
           3           1           1           1           1           1
           3           1           3           1           6           3
           3           1           1           1           1           1
           3           1           6           3           3           1
           1           1           1           1           3           1
           6           3           3           1           1           1
           1           1           6           3           3           1
           1           1           1           1           3           1
           3           1           6           6           6           3
           3           1           1           1           1           1
           6           3           3           1           1           1
           1           1           3           1           3           1
           3           1           3           1           3           1
           3           1           3           1           3           1
           3           1           3           1
Shell to atom map                          I   N=         154
           1           1           1           1           1           1
           1           1           2           2           2           2
           2           2           2           2           3           3
           3           3           3           3           3           3
           4           4           4           4           4           4
           4           4           5           5           5           5
           5           5           5           5           6           6
           6           6           6           6           6           6
           7           7           7           7           7           7
           7           7           8           8           8           8
           8           8           8           8           9           9
           9           9           9           9           9           9
          10          10          11          11          12          12
          12          12          12          12          12          12
          13          13          14          14          14          14
          14          14          14          14          15          15
          16          16          16          16          16          16
          16          16          17          17          17          17
          17          17          17          17          18          18
          19          19          20          20          20          20
          20          20          20          20          20          20
          21          21          21          21          21          21
          21          21          22          22          23          23
          24          24          25          25          26          26
          27          27          28          28          29          29
          30          30          31          31
Primitive exponents                        R   N=         331
  3.04752490e+03  4.57369510e+02  1.03948690e+02  2.92101550e+01  9.28666300e+00
  3.16392700e+00  7.86827240e+00  1.88128850e+00  5.44249300e-01  7.86827240e+00
  1.88128850e+00  5.44249300e-01  1.68714400e-01  1.68714400e-01  8.00000000e-01
  4.38000000e-02  4.38000000e-02  3.04752490e+03  4.57369510e+02  1.03948690e+02
  2.92101550e+01  9.28666300e+00  3.16392700e+00  7.86827240e+00  1.88128850e+00
  5.44249300e-01  7.86827240e+00  1.88128850e+00  5.44249300e-01  1.68714400e-01
  1.68714400e-01  8.00000000e-01  4.38000000e-02  4.38000000e-02  3.04752490e+03
  4.57369510e+02  1.03948690e+02  2.92101550e+01  9.28666300e+00  3.16392700e+00
  7.86827240e+00  1.88128850e+00  5.44249300e-01  7.86827240e+00  1.88128850e+00
  5.44249300e-01  1.68714400e-01  1.68714400e-01  8.00000000e-01  4.38000000e-02
  4.38000000e-02  4.17351100e+03  6.27457900e+02  1.42902100e+02  4.02343300e+01
  1.28202100e+01  4.39043700e+00  1.16263580e+01  2.71628000e+00  7.72218000e-01
  1.16263580e+01  2.71628000e+00  7.72218000e-01  2.12031300e-01  2.12031300e-01
  8.00000000e-01  6.39000000e-02  6.39000000e-02  3.04752490e+03  4.57369510e+02
  1.03948690e+02  2.92101550e+01  9.28666300e+00  3.16392700e+00  7.86827240e+00
  1.88128850e+00  5.44249300e-01  7.86827240e+00  1.88128850e+00  5.44249300e-01
  1.68714400e-01  1.68714400e-01  8.00000000e-01  4.38000000e-02  4.38000000e-02
  3.04752490e+03  4.57369510e+02  1.03948690e+02  2.92101550e+01  9.28666300e+00
  3.16392700e+00  7.86827240e+00  1.88128850e+00  5.44249300e-01  7.86827240e+00
  1.88128850e+00  5.44249300e-01  1.68714400e-01  1.68714400e-01  8.00000000e-01
  4.38000000e-02  4.38000000e-02  3.04752490e+03  4.57369510e+02  1.03948690e+02
  2.92101550e+01  9.28666300e+00  3.16392700e+00  7.86827240e+00  1.88128850e+00
  5.44249300e-01  7.86827240e+00  1.88128850e+00  5.44249300e-01  1.68714400e-01
  1.68714400e-01  8.00000000e-01  4.38000000e-02  4.38000000e-02  3.04752490e+03
  4.57369510e+02  1.03948690e+02  2.92101550e+01  9.28666300e+00  3.16392700e+00
  7.86827240e+00  1.88128850e+00  5.44249300e-01  7.86827240e+00  1.88128850e+00
  5.44249300e-01  1.68714400e-01  1.68714400e-01  8.00000000e-01  4.38000000e-02
  4.38000000e-02  3.04752490e+03  4.57369510e+02  1.03948690e+02  2.92101550e+01
  9.28666300e+00  3.16392700e+00  7.86827240e+00  1.88128850e+00  5.44249300e-01
  7.86827240e+00  1.88128850e+00  5.44249300e-01  1.68714400e-01  1.68714400e-01
  8.00000000e-01  4.38000000e-02  4.38000000e-02  1.87311370e+01  2.82539370e+00
  6.40121700e-01  1.61277800e-01  1.87311370e+01  2.82539370e+00  6.40121700e-01
  1.61277800e-01  3.04752490e+03  4.57369510e+02  1.03948690e+02  2.92101550e+01
  9.28666300e+00  3.16392700e+00  7.86827240e+00  1.88128850e+00  5.44249300e-01
  7.86827240e+00  1.88128850e+00  5.44249300e-01  1.68714400e-01  1.68714400e-01
  8.00000000e-01  4.38000000e-02  4.38000000e-02  1.87311370e+01  2.82539370e+00
  6.40121700e-01  1.61277800e-01  5.48467170e+03  8.25234950e+02  1.88046960e+02
  5.29645000e+01  1.68975700e+01  5.79963530e+00  1.55396160e+01  3.59993360e+00
  1.01376180e+00  1.55396160e+01  3.59993360e+00  1.01376180e+00  2.70005800e-01
  2.70005800e-01  8.00000000e-01  8.45000000e-02  8.45000000e-02  1.87311370e+01
  2.82539370e+00  6.40121700e-01  1.61277800e-01  3.04752490e+03  4.57369510e+02
  1.03948690e+02  2.92101550e+01  9.28666300e+00  3.16392700e+00  7.86827240e+00
  1.88128850e+00  5.44249300e-01  7.86827240e+00  1.88128850e+00  5.44249300e-01
  1.68714400e-01  1.68714400e-01  8.00000000e-01  4.38000000e-02  4.38000000e-02
  3.04752490e+03  4.57369510e+02  1.03948690e+02  2.92101550e+01  9.28666300e+00
  3.16392700e+00  7.86827240e+00  1.88128850e+00  5.44249300e-01  7.86827240e+00
  1.88128850e+00  5.44249300e-01  1.68714400e-01  1.68714400e-01  8.00000000e-01
  4.38000000e-02  4.38000000e-02  1.87311370e+01  2.82539370e+00  6.40121700e-01
  1.61277800e-01  1.87311370e+01  2.82539370e+00  6.40121700e-01  1.61277800e-01
  2.51801000e+04  3.78035000e+03  8.60474000e+02  2.42145000e+02  7.73349000e+01
  2.62470000e+01  4.91765000e+02  1.16984000e+02  3.74153000e+01  1.37834000e+01
  5.45215000e+00  2.22588000e+00  4.91765000e+02  1.16984000e+02  3.74153000e+01
  1.37834000e+01  5.45215000e+00  2.22588000e+00  3.18649000e+00  1.14427000e+00
  4.20377000e-01  3.18649000e+00  1.14427000e+00  4.20377000e-01  1.42657000e-01
  1.42657000e-01  7.50000000e-01  4.83000000e-02  4.83000000e-02  3.04752490e+03
  4.57369510e+02  1.03948690e+02  2.92101550e+01  9.28666300e+00  3.16392700e+00
  7.86827240e+00  1.88128850e+00  5.44249300e-01  7.86827240e+00  1.88128850e+00
  5.44249300e-01  1.68714400e-01  1.68714400e-01  8.00000000e-01  4.38000000e-02
  4.38000000e-02  1.87311370e+01  2.82539370e+00  6.40121700e-01  1.61277800e-01
  1.87311370e+01  2.82539370e+00  6.40121700e-01  1.61277800e-01  1.87311370e+01
  2.82539370e+00  6.40121700e-01  1.61277800e-01  1.87311370e+01  2.82539370e+00
  6.40121700e-01  1.61277800e-01  1.87311370e+01  2.82539370e+00  6.40121700e-01
  1.61277800e-01  1.87311370e+01  2.82539370e+00  6.40121700e-01  1.61277800e-01
  1.87311370e+01  2.82539370e+00  6.40121700e-01  1.61277800e-01  1.87311370e+01
  2.82539370e+00  6.40121700e-01  1.61277800e-01  1.87311370e+01  2.82539370e+00
  6.40121700e-01  1.61277800e-01  1.87311370e+01  2.82539370e+00  6.40121700e-01
  1.61277800e-01
Contraction coefficients                   R   N=         331
  1.83470016e-03  1.40373012e-02  6.88426061e-02  2.32184421e-01  4.67941342e-01
  3.62312032e-01 -1.19332409e-01 -1.60854212e-01  1.14345648e+00  6.89990956e-02
  3.16423980e-01  7.44308252e-01  1.00000000e+00  1.00000000e+00  1.00000000e+00
  1.00000000e+00  1.00000000e+00  1.83470016e-03  1.40373012e-02  6.88426061e-02
  2.32184421e-01  4.67941342e-01  3.62312032e-01 -1.19332409e-01 -1.60854212e-01
  1.14345648e+00  6.89990956e-02  3.16423980e-01  7.44308252e-01  1.00000000e+00
  1.00000000e+00  1.00000000e+00  1.00000000e+00  1.00000000e+00  1.83470016e-03
  1.40373012e-02  6.88426061e-02  2.32184421e-01  4.67941342e-01  3.62312032e-01
 -1.19332409e-01 -1.60854212e-01  1.14345648e+00  6.89990956e-02  3.16423980e-01
  7.44308252e-01  1.00000000e+00  1.00000000e+00  1.00000000e+00  1.00000000e+00
  1.00000000e+00  1.83479944e-03  1.39949958e-02  6.85869792e-02  2.32240930e-01
  4.69069858e-01  3.60454891e-01 -1.14961023e-01 -1.69118034e-01  1.14585223e+00
  6.75800232e-02  3.23907111e-01  7.40895255e-01  1.00000000e+00  1.00000000e+00
  1.00000000e+00  1.00000000e+00  1.00000000e+00  1.83470016e-03  1.40373012e-02
  6.88426061e-02  2.32184421e-01  4.67941342e-01  3.62312032e-01 -1.19332409e-01
 -1.60854212e-01  1.14345648e+00  6.89990956e-02  3.16423980e-01  7.44308252e-01
  1.00000000e+00  1.00000000e+00  1.00000000e+00  1.00000000e+00  1.00000000e+00
  1.83470016e-03  1.40373012e-02  6.88426061e-02  2.32184421e-01  4.67941342e-01
  3.62312032e-01 -1.19332409e-01 -1.60854212e-01  1.14345648e+00  6.89990956e-02
  3.16423980e-01  7.44308252e-01  1.00000000e+00  1.00000000e+00  1.00000000e+00
  1.00000000e+00  1.00000000e+00  1.83470016e-03  1.40373012e-02  6.88426061e-02
  2.32184421e-01  4.67941342e-01  3.62312032e-01 -1.19332409e-01 -1.60854212e-01
  1.14345648e+00  6.89990956e-02  3.16423980e-01  7.44308252e-01  1.00000000e+00
  1.00000000e+00  1.00000000e+00  1.00000000e+00  1.00000000e+00  1.83470016e-03
  1.40373012e-02  6.88426061e-02  2.32184421e-01  4.67941342e-01  3.62312032e-01
 -1.19332409e-01 -1.60854212e-01  1.14345648e+00  6.89990956e-02  3.16423980e-01
  7.44308252e-01  1.00000000e+00  1.00000000e+00  1.00000000e+00  1.00000000e+00
  1.00000000e+00  1.83470016e-03  1.40373012e-02  6.88426061e-02  2.32184421e-01
  4.67941342e-01  3.62312032e-01 -1.19332409e-01 -1.60854212e-01  1.14345648e+00
  6.89990956e-02  3.16423980e-01  7.44308252e-01  1.00000000e+00  1.00000000e+00
  1.00000000e+00  1.00000000e+00  1.00000000e+00  3.34945995e-02  2.34726947e-01
  8.13757318e-01  1.00000000e+00  3.34945995e-02  2.34726947e-01  8.13757318e-01
  1.00000000e+00  1.83470016e-03  1.40373012e-02  6.88426061e-02  2.32184421e-01
  4.67941342e-01  3.62312032e-01 -1.19332409e-01 -1.60854212e-01  1.14345648e+00
  6.89990956e-02  3.16423980e-01  7.44308252e-01  1.00000000e+00  1.00000000e+00
  1.00000000e+00  1.00000000e+00  1.00000000e+00  3.34945995e-02  2.34726947e-01
  8.13757318e-01  1.00000000e+00  1.83109981e-03  1.39500985e-02  6.84450927e-02
  2.32714275e-01  4.70192950e-01  3.58520862e-01 -1.10777504e-01 -1.48026305e-01
  1.13076704e+00  7.08742995e-02  3.39752798e-01  7.27158595e-01  1.00000000e+00
  1.00000000e+00  1.00000000e+00  1.00000000e+00  1.00000000e+00  3.34945995e-02
  2.34726947e-01  8.13757318e-01  1.00000000e+00  1.83470016e-03  1.40373012e-02
  6.88426061e-02  2.32184421e-01  4.67941342e-01  3.62312032e-01 -1.19332409e-01
 -1.60854212e-01  1.14345648e+00  6.89990956e-02  3.16423980e-01  7.44308252e-01
  1.00000000e+00  1.00000000e+00  1.00000000e+00  1.00000000e+00  1.00000000e+00
  1.83470016e-03  1.40373012e-02  6.88426061e-02  2.32184421e-01  4.67941342e-01
  3.62312032e-01 -1.19332409e-01 -1.60854212e-01  1.14345648e+00  6.89990956e-02
  3.16423980e-01  7.44308252e-01  1.00000000e+00  1.00000000e+00  1.00000000e+00
  1.00000000e+00  1.00000000e+00  3.34945995e-02  2.34726947e-01  8.13757318e-01
  1.00000000e+00  3.34945995e-02  2.34726947e-01  8.13757318e-01  1.00000000e+00
  1.83300031e-03  1.40340024e-02  6.90970118e-02  2.37452040e-01  4.83034082e-01
  3.39856058e-01 -2.29740199e-03 -3.07140266e-02 -1.12528097e-01  4.50160390e-02
  5.89353510e-01  4.65206403e-01  3.98940055e-03  3.03180042e-02  1.29880018e-01
  3.27951045e-01  4.53527062e-01  2.52154035e-01 -2.51831288e-01  6.15893150e-02
  1.06018542e+00 -1.42990127e-02  3.23572288e-01  7.43507661e-01  1.00000000e+00
  1.00000000e+00  1.00000000e+00  1.00000000e+00  1.00000000e+00  1.83470016e-03
  1.40373012e-02  6.88426061e-02  2.32184421e-01  4.67941342e-01  3.62312032e-01
 -1.19332409e-01 -1.60854212e-01  1.14345648e+00  6.89990956e-02  3.16423980e-01
  7.44308252e-01  1.00000000e+00  1.00000000e+00  1.00000000e+00  1.00000000e+00
  1.00000000e+00  3.34945995e-02  2.34726947e-01  8.13757318e-01  1.00000000e+00
  3.34945995e-02  2.34726947e-01  8.13757318e-01  1.00000000e+00  3.34945995e-02
  2.34726947e-01  8.13757318e-01  1.00000000e+00  3.34945995e-02  2.34726947e-01
  8.13757318e-01  1.00000000e+00  3.34945995e-02  2.34726947e-01  8.13757318e-01
  1.00000000e+00  3.34945995e-02  2.34726947e-01  8.13757318e-01  1.00000000e+00
  3.34945995e-02  2.34726947e-01  8.13757318e-01  1.00000000e+00  3.34945995e-02
  2.34726947e-01  8.13757318e-01  1.00000000e+00  3.34945995e-02  2.34726947e-01
  8.13757318e-01  1.00000000e+00  3.34945995e-02  2.34726947e-01  8.13757318e-01
  1.00000000e+00
Coordinates of each shell                  R   N=         462
 -6.95176610e-01 -4.69941331e-01 -1.27634067e+00 -6.95176610e-01 -4.69941331e-01
 -1.27634067e+00 -6.95176610e-01 -4.69941331e-01 -1.27634067e+00 -6.95176610e-01
 -4.69941331e-01 -1.27634067e+00 -6.95176610e-01 -4.69941331e-01 -1.27634067e+00
 -6.95176610e-01 -4.69941331e-01 -1.27634067e+00 -6.95176610e-01 -4.69941331e-01
 -1.27634067e+00 -6.95176610e-01 -4.69941331e-01 -1.27634067e+00 -2.81242406e+00
  1.08590291e+00 -1.94113809e-01 -2.81242406e+00  1.08590291e+00 -1.94113809e-01
 -2.81242406e+00  1.08590291e+00 -1.94113809e-01 -2.81242406e+00  1.08590291e+00
 -1.94113809e-01 -2.81242406e+00  1.08590291e+00 -1.94113809e-01 -2.81242406e+00
  1.08590291e+00 -1.94113809e-01 -2.81242406e+00  1.08590291e+00 -1.94113809e-01
 -2.81242406e+00  1.08590291e+00 -1.94113809e-01 -2.85279594e+00  1.80615793e+00
  2.62108281e+00 -2.85279594e+00  1.80615793e+00  2.62108281e+00 -2.85279594e+00
  1.80615793e+00  2.62108281e+00 -2.85279594e+00  1.80615793e+00  2.62108281e+00
 -2.85279594e+00  1.80615793e+00  2.62108281e+00 -2.85279594e+00  1.80615793e+00
  2.62108281e+00 -2.85279594e+00  1.80615793e+00  2.62108281e+00 -2.85279594e+00
  1.80615793e+00  2.62108281e+00 -2.67991773e+00 -4.95233431e-01  4.15830028e+00
 -2.67991773e+00 -4.95233431e-01  4.15830028e+00 -2.67991773e+00 -4.95233431e-01
  4.15830028e+00 -2.67991773e+00 -4.95233431e-01  4.15830028e+00 -2.67991773e+00
 -4.95233431e-01  4.15830028e+00 -2.67991773e+00 -4.95233431e-01  4.15830028e+00
 -2.67991773e+00 -4.95233431e-01  4.15830028e+00 -2.67991773e+00 -4.95233431e-01
  4.15830028e+00  1.68919476e+00 -7.02102440e-01 -1.37002264e-01  1.68919476e+00
 -7.02102440e-01 -1.37002264e-01  1.68919476e+00 -7.02102440e-01 -1.37002264e-01
  1.68919476e+00 -7.02102440e-01 -1.37002264e-01  1.68919476e+00 -7.02102440e-01
 -1.37002264e-01  1.68919476e+00 -7.02102440e-01 -1.37002264e-01  1.68919476e+00
 -7.02102440e-01 -1.37002264e-01  1.68919476e+00 -7.02102440e-01 -1.37002264e-01
  3.59918217e+00 -2.13311252e+00 -1.25987991e+00  3.59918217e+00 -2.13311252e+00
 -1.25987991e+00  3.59918217e+00 -2.13311252e+00 -1.25987991e+00  3.59918217e+00
 -2.13311252e+00 -1.25987991e+00  3.59918217e+00 -2.13311252e+00 -1.25987991e+00
  3.59918217e+00 -2.13311252e+00 -1.25987991e+00  3.59918217e+00 -2.13311252e+00
 -1.25987991e+00  3.59918217e+00 -2.13311252e+00 -1.25987991e+00  3.10625282e+00
 -3.36718698e+00 -3.53659889e+00  3.10625282e+00 -3.36718698e+00 -3.53659889e+00
  3.10625282e+00 -3.36718698e+00 -3.53659889e+00  3.10625282e+00 -3.36718698e+00
 -3.53659889e+00  3.10625282e+00 -3.36718698e+00 -3.53659889e+00  3.10625282e+00
 -3.36718698e+00 -3.53659889e+00  3.10625282e+00 -3.36718698e+00 -3.53659889e+00
  3.10625282e+00 -3.36718698e+00 -3.53659889e+00  7.50037532e-01 -3.17015010e+00
 -4.71289211e+00  7.50037532e-01 -3.17015010e+00 -4.71289211e+00  7.50037532e-01
 -3.17015010e+00 -4.71289211e+00  7.50037532e-01 -3.17015010e+00 -4.71289211e+00
  7.50037532e-01 -3.17015010e+00 -4.71289211e+00  7.50037532e-01 -3.17015010e+00
 -4.71289211e+00  7.50037532e-01 -3.17015010e+00 -4.71289211e+00  7.50037532e-01
 -3.17015010e+00 -4.71289211e+00 -1.12497925e+00 -1.71141985e+00 -3.58352944e+00
 -1.12497925e+00 -1.71141985e+00 -3.58352944e+00 -1.12497925e+00 -1.71141985e+00
 -3.58352944e+00 -1.12497925e+00 -1.71141985e+00 -3.58352944e+00 -1.12497925e+00
 -1.71141985e+00 -3.58352944e+00 -1.12497925e+00 -1.71141985e+00 -3.58352944e+00
 -1.12497925e+00 -1.71141985e+00 -3.58352944e+00 -1.12497925e+00 -1.71141985e+00
 -3.58352944e+00  2.11402143e+00  2.77946991e-01  1.61425544e+00  2.11402143e+00
  2.77946991e-01  1.61425544e+00  5.44701795e+00 -2.28493846e+00 -3.83554997e-01
  5.44701795e+00 -2.28493846e+00 -3.83554997e-01 -9.56025405e-01  3.99070599e+00
  3.24640199e+00 -9.56025405e-01  3.99070599e+00  3.24640199e+00 -9.56025405e-01
  3.99070599e+00  3.24640199e+00 -9.56025405e-01  3.99070599e+00  3.24640199e+00
 -9.56025405e-01  3.99070599e+00  3.24640199e+00 -9.56025405e-01  3.99070599e+00
  3.24640199e+00 -9.56025405e-01  3.99070599e+00  3.24640199e+00 -9.56025405e-01
  3.99070599e+00  3.24640199e+00 -4.77164157e+00  2.53093537e+00  2.90152628e+00
 -4.77164157e+00  2.53093537e+00  2.90152628e+00 -4.53904212e+00  1.78008289e+00
 -1.56620048e+00 -4.53904212e+00  1.78008289e+00 -1.56620048e+00 -4.53904212e+00
  1.78008289e+00 -1.56620048e+00 -4.53904212e+00  1.78008289e+00 -1.56620048e+00
 -4.53904212e+00  1.78008289e+00 -1.56620048e+00 -4.53904212e+00  1.78008289e+00
 -1.56620048e+00 -4.53904212e+00  1.78008289e+00 -1.56620048e+00 -4.53904212e+00
  1.78008289e+00 -1.56620048e+00 -2.96183253e+00 -1.51475962e+00 -4.47481659e+00
 -2.96183253e+00 -1.51475962e+00 -4.47481659e+00 -3.46713003e+00 -1.93004283e-01
  6.78745375e+00 -3.46713003e+00 -1.93004283e-01  6.78745375e+00 -3.46713003e+00
 -1.93004283e-01  6.78745375e+00 -3.46713003e+00 -1.93004283e-01  6.78745375e+00
 -3.46713003e+00 -1.93004283e-01  6.78745375e+00 -3.46713003e+00 -1.93004283e-01
  6.78745375e+00 -3.46713003e+00 -1.93004283e-01  6.78745375e+00 -3.46713003e+00
 -1.93004283e-01  6.78745375e+00 -2.22242065e+00  6.32927187e+00  4.41305417e+00
 -2.22242065e+00  6.32927187e+00  4.41305417e+00 -2.22242065e+00  6.32927187e+00
  4.41305417e+00 -2.22242065e+00  6.32927187e+00  4.41305417e+00 -2.22242065e+00
  6.32927187e+00  4.41305417e+00 -2.22242065e+00  6.32927187e+00  4.41305417e+00
 -2.22242065e+00  6.32927187e+00  4.41305417e+00 -2.22242065e+00  6.32927187e+00
  4.41305417e+00  5.57706550e-02  4.58198815e+00  1.53133988e+00  5.57706550e-02
  4.58198815e+00  1.53133988e+00  4.93050592e-01  3.26789264e+00  4.55080596e+00
  4.93050592e-01  3.26789264e+00  4.55080596e+00  5.48880419e+00 -5.19138763e+00
 -4.94945640e+00  5.48880419e+00 -5.19138763e+00 -4.94945640e+00  5.48880419e+00
 -5.19138763e+00 -4.94945640e+00  5.48880419e+00 -5.19138763e+00 -4.94945640e+00
  5.48880419e+00 -5.19138763e+00 -4.94945640e+00  5.48880419e+00 -5.19138763e+00
 -4.94945640e+00  5.48880419e+00 -5.19138763e+00 -4.94945640e+00  5.48880419e+00
 -5.19138763e+00 -4.94945640e+00  5.48880419e+00 -5.19138763e+00 -4.94945640e+00
  5.48880419e+00 -5.19138763e+00 -4.94945640e+00 -3.41605188e-01  8.44097154e+00
  5.03934268e+00 -3.41605188e-01  8.44097154e+00  5.03934268e+00 -3.41605188e-01
  8.44097154e+00  5.03934268e+00 -3.41605188e-01  8.44097154e+00  5.03934268e+00
 -3.41605188e-01  8.44097154e+00  5.03934268e+00 -3.41605188e-01  8.44097154e+00
  5.03934268e+00 -3.41605188e-01  8.44097154e+00  5.03934268e+00 -3.41605188e-01
  8.44097154e+00  5.03934268e+00 -3.24428732e+00  5.77290079e+00  6.13307607e+00
 -3.24428732e+00  5.77290079e+00  6.13307607e+00 -3.65633478e+00  7.04331220e+00
  3.09200858e+00 -3.65633478e+00  7.04331220e+00  3.09200858e+00 -9.19738387e-01
 -1.26110764e+00  4.07636998e+00 -9.19738387e-01 -1.26110764e+00  4.07636998e+00
 -5.45796305e+00  3.76793278e-01  6.83959159e+00 -5.45796305e+00  3.76793278e-01
  6.83959159e+00 -2.36679959e+00  1.21203405e+00  7.87025251e+00 -2.36679959e+00
  1.21203405e+00  7.87025251e+00 -3.30711169e+00 -2.01800449e+00  7.74955496e+00
 -3.30711169e+00 -2.01800449e+00  7.74955496e+00  1.08384191e+00  7.79989596e+00
  6.40353229e+00  1.08384191e+00  7.79989596e+00  6.40353229e+00 -1.30218444e+00
  1.00832780e+01  5.85966353e+00 -1.30218444e+00  1.00832780e+01  5.85966353e+00
  6.59495225e-01  9.08169804e+00  3.33967722e+00  6.59495225e-01  9.08169804e+00
  3.33967722e+00  3.99643517e-01 -4.14290813e+00 -6.48405149e+00  3.99643517e-01
 -4.14290813e+00 -6.48405149e+00
Total Energy                               R     -1.057093997495785e+03
Alpha Orbital Energies                     R   N=         321
 -1.01566868e+02 -1.91540573e+01 -1.43397965e+01 -1.02885345e+01 -1.02758350e+01
 -1.02317087e+01 -1.02276498e+01 -1.02249318e+01 -1.02228685e+01 -1.02223756e+01
 -1.02193576e+01 -1.02165535e+01 -1.02009262e+01 -1.01959608e+01 -1.01862579e+01
 -9.48201572e+00 -7.24607150e+00 -7.23642534e+00 -7.23600020e+00 -1.05198718e+00
 -9.20288726e-01 -9.09368994e-01 -8.56945374e-01 -8.04152193e-01 -7.79227909e-01
 -7.68663817e-01 -7.40152784e-01 -6.85204537e-01 -6.52943648e-01 -6.41281095e-01
 -6.27722362e-01 -6.00936314e-01 -5.77214028e-01 -5.25618578e-01 -5.02371152e-01
 -4.88219512e-01 -4.83460099e-01 -4.72932944e-01 -4.61419610e-01 -4.59282233e-01
 -4.52490854e-01 -4.38553013e-01 -4.30437042e-01 -4.19236033e-01 -4.11100782e-01
 -4.04430489e-01 -3.98191754e-01 -3.89211861e-01 -3.85423780e-01 -3.76529572e-01
 -3.68531129e-01 -3.58980248e-01 -3.44382701e-01 -3.43093202e-01 -3.41386246e-01
 -3.28018781e-01 -2.83197716e-01 -2.67856073e-01 -2.64115028e-01 -2.32401863e-01
 -7.30897828e-02 -3.77657993e-02 -9.86783501e-03  3.12928619e-03  5.26990498e-03