Generated by Psi4
     FORCE                           RHF                       TESTBAS
Number of atoms                            I               31
Charge                                     I                0
Multiplicity                               I                1
Number of electrons                        I              104
Number of alpha electrons                  I               52
Number of beta electrons                   I               52
Number of basis functions                  I              300
Number of independent functions            I              300
Atomic numbers                             I   N=          31
           6           6           6           7           6           6
           6           6           6           1           1           6
           1           6           1           8           1           1
           1           1           1           6           1           1
           1           6           1           1           1           1
           1
Nuclear charges                            R   N=          31
  6.00000000e+00  6.00000000e+00  6.00000000e+00  7.00000000e+00  6.00000000e+00
  6.00000000e+00  6.00000000e+00  6.00000000e+00  6.00000000e+00  1.00000000e+00
  1.00000000e+00  6.00000000e+00  1.00000000e+00  6.00000000e+00  1.00000000e+00
  8.00000000e+00  1.00000000e+00  1.00000000e+00  1.00000000e+00  1.00000000e+00
  1.00000000e+00  6.00000000e+00  1.00000000e+00  1.00000000e+00  1.00000000e+00
  6.00000000e+00  1.00000000e+00  1.00000000e+00  1.00000000e+00  1.00000000e+00
  1.00000000e+00
Current cartesian coordinates              R   N=          93
  6.56636160e-03  3.21176237e-01 -1.42613920e+00 -2.46842310e+00  1.40724913e+00
 -5.82715877e-01 -2.89433499e+00  2.46283760e+00  2.10836598e+00 -2.05539196e+00
  7.55795441e-01  4.12254720e+00  2.09265995e+00 -5.41183009e-02  1.76364373e-01
  4.34870459e+00 -1.03284541e+00 -7.76462512e-01  4.60354090e+00 -1.67274036e+00
 -3.33463694e+00  2.51308648e+00 -1.29250048e+00 -4.92812677e+00  2.57109961e-01
 -3.18446795e-01 -3.99617254e+00  1.91816634e+00  3.75127235e-01  2.17100514e+00
  5.94038857e+00 -1.30790905e+00  4.96492364e-01 -1.59047229e+00  5.04768140e+00
  2.37175360e+00 -4.95595092e+00  2.77134086e+00  2.18149155e+00 -3.56249109e+00
 -1.56185382e+00  4.34612929e+00 -2.11740635e+00  1.71190440e+00  5.79525245e+00
 -4.22305805e+00  1.60453234e+00 -2.08576768e+00  2.66499661e+00 -1.76246536e+00
 -6.92441958e+00 -1.34744081e+00 -2.14715668e-02 -5.23915086e+00  4.68548192e-01
  4.87703037e+00  2.27443525e+00 -2.08814008e+00  5.90796838e+00  4.19253555e+00
 -2.21970746e+00  6.33166124e+00  8.76304443e-01  7.03066663e+00 -2.78818495e+00
 -4.33980042e+00  8.66819132e+00 -2.15905147e+00 -3.24065533e+00  7.34242479e+00
 -2.26670019e+00 -6.31902314e+00  6.98528370e+00 -4.86211060e+00 -4.24940089e+00
 -2.71509869e+00 -3.13409881e+00  6.61265620e+00 -3.30752142e+00 -2.65896201e+00
  2.60489692e+00 -5.60632946e+00 -1.14542805e+00  4.49154145e+00 -7.14867557e-01
 -3.64373923e+00  6.44984823e+00 -3.82692060e+00 -4.87638353e+00  6.74697702e+00
 -2.97045329e+00 -2.09077768e+00  8.38867663e+00
Integer atomic weights                     I   N=          31
          12          12          12          14          12          12
          12          12          12           1           1          12
           1          12           1          15           1           1
           1           1           1          12           1           1
           1          12           1           1           1           1
           1
Real atomic weights                        R   N=          31
  1.20000000e+01  1.20000000e+01  1.20000000e+01  1.40030740e+01  1.20000000e+01
  1.20000000e+01  1.20000000e+01  1.20000000e+01  1.20000000e+01  1.00782503e+00
  1.00782503e+00  1.20000000e+01  1.00782503e+00  1.20000000e+01  1.00782503e+00
  1.59949146e+01  1.00782503e+00  1.00782503e+00  1.00782503e+00  1.00782503e+00
  1.00782503e+00  1.20000000e+01  1.00782503e+00  1.00782503e+00  1.00782503e+00
  1.20000000e+01  1.00782503e+00  1.00782503e+00  1.00782503e+00  1.00782503e+00
  1.00782503e+00
Number of primitive shells                 I              306
Number of contracted shells                I              146
Pure/Cartesian d shells                    I                1
Pure/Cartesian f shells                    I                1
Highest angular momentum                   I                2
Largest degree of contraction              I                6
Shell types                                I   N=         146
           0           0           1           0           1           2
           0           1           0           0           1           0
           1           2           0           1           0           0
           1           0           1           2           0           1
           0           0           1           0           1           2
           0           1           0           0           1           0
           1           2           0           1           0           0
           1           0           1           2           0           1
           0           0           1           0           1           2
           0           1           0           0           1           0
           1           2           0           1           0           0
           1           0           1           2           0           1
           0           0           0           0           0           0
           1           0           1           2           0           1
           0           0           0           0           1           0
           1           2           0           1           0           0
           0           0           1           0           1           2
           0           1           0           0           0           0
           0           0           0           0           0           0
           0           0           1           0           1           2
           0           1           0           0           0           0
           0           0           0           0           1           0
           1           2           0           1           0           0
           0           0           0           0           0           0
           0           0
Number of primitives per shell             I   N=         146
           6           3           3           1           1           1
           1           1           6           3           3           1
           1           1           1           1           6           3
           3           1           1           1           1           1
           6           3           3           1           1           1
           1           1           6           3           3           1
           1           1           1           1           6           3
           3           1           1           1           1           1
           6           3           3           1           1           1
           1           1           6           3           3           1
           1           1           1           1           6           3
           3           1           1           1           1           1
           3           1           3           1           6           3
           3           1           1           1           1           1
           3           1           6           3           3           1
           1           1           1           1           3           1
           6           3           3           1           1           1
           1           1           3           1           3           1
           3           1           3           1           3           1
           6           3           3           1           1           1
           1           1           3           1           3           1
           3           1           6           3           3           1
           1           1           1           1           3           1
           3           1           3           1           3           1
           3           1
Shell to atom map                          I   N=         146
           1           1           1           1           1           1
           1           1           2           2           2           2
           2           2           2           2           3           3
           3           3           3           3           3           3
           4           4           4           4           4           4
           4           4           5           5           5           5
           5           5           5           5           6           6
           6           6           6           6           6           6
           7           7           7           7           7           7
           7           7           8           8           8           8
           8           8           8           8           9           9
           9           9           9           9           9           9
          10          10          11          11          12          12
          12          12          12          12          12          12
          13          13          14          14          14          14
          14          14          14          14          15          15
          16          16          16          16          16          16
          16          16          17          17          18          18
          19          19          20          20          21          21
          22          22          22          22          22          22
          22          22          23          23          24          24
          25          25          26          26          26          26
          26          26          26          26          27          27
          28          28          29          29          30          30
          31          31
Primitive exponents                        R   N=         306
  3.04752490e+03  4.57369510e+02  1.03948690e+02  2.92101550e+01  9.28666300e+00
  3.16392700e+00  7.86827240e+00  1.88128850e+00  5.44249300e-01  7.86827240e+00
  1.88128850e+00  5.44249300e-01  1.68714400e-01  1.68714400e-01  8.00000000e-01
  4.38000000e-02  4.38000000e-02  3.04752490e+03  4.57369510e+02  1.03948690e+02
  2.92101550e+01  9.28666300e+00  3.16392700e+00  7.86827240e+00  1.88128850e+00
  5.44249300e-01  7.86827240e+00  1.88128850e+00  5.44249300e-01  1.68714400e-01
  1.68714400e-01  8.00000000e-01  4.38000000e-02  4.38000000e-02  3.04752490e+03
  4.57369510e+02  1.03948690e+02  2.92101550e+01  9.28666300e+00  3.16392700e+00
  7.86827240e+00  1.88128850e+00  5.44249300e-01  7.86827240e+00  1.88128850e+00
  5.44249300e-01  1.68714400e-01  1.68714400e-01  8.00000000e-01  4.38000000e-02
  4.38000000e-02  4.17351100e+03  6.27457900e+02  1.42902100e+02  4.02343300e+01
  1.28202100e+01  4.39043700e+00  1.16263580e+01  2.71628000e+00  7.72218000e-01
  1.16263580e+01  2.71628000e+00  7.72218000e-01  2.12031300e-01  2.12031300e-01
  8.00000000e-01  6.39000000e-02  6.39000000e-02  3.04752490e+03  4.57369510e+02
  1.03948690e+02  2.92101550e+01  9.28666300e+00  3.16392700e+00  7.86827240e+00
  1.88128850e+00  5.44249300e-01  7.86827240e+00  1.88128850e+00  5.44249300e-01
  1.68714400e-01  1.68714400e-01  8.00000000e-01  4.38000000e-02  4.38000000e-02
  3.04752490e+03  4.57369510e+02  1.03948690e+02  2.92101550e+01  9.28666300e+00
  3.16392700e+00  7.86827240e+00  1.88128850e+00  5.44249300e-01  7.86827240e+00
  1.88128850e+00  5.44249300e-01  1.68714400e-01  1.68714400e-01  8.00000000e-01
  4.38000000e-02  4.38000000e-02  3.04752490e+03  4.57369510e+02  1.03948690e+02
  2.92101550e+01  9.28666300e+00  3.16392700e+00  7.86827240e+00  1.88128850e+00
  5.44249300e-01  7.86827240e+00  1.88128850e+00  5.44249300e-01  1.68714400e-01
  1.68714400e-01  8.00000000e-01  4.38000000e-02  4.38000000e-02  3.04752490e+03
  4.57369510e+02  1.03948690e+02  2.92101550e+01  9.28666300e+00  3.16392700e+00
  7.86827240e+00  1.88128850e+00  5.44249300e-01  7.86827240e+00  1.88128850e+00
  5.44249300e-01  1.68714400e-01  1.68714400e-01  8.00000000e-01  4.38000000e-02
  4.38000000e-02  3.04752490e+03  4.57369510e+02  1.03948690e+02  2.92101550e+01
  9.28666300e+00  3.16392700e+00  7.86827240e+00  1.88128850e+00  5.44249300e-01
  7.86827240e+00  1.88128850e+00  5.44249300e-01  1.68714400e-01  1.68714400e-01
  8.00000000e-01  4.38000000e-02  4.38000000e-02  1.87311370e+01  2.82539370e+00
  6.40121700e-01  1.61277800e-01  1.87311370e+01  2.82539370e+00  6.40121700e-01
  1.61277800e-01  3.04752490e+03  4.57369510e+02  1.03948690e+02  2.92101550e+01
  9.28666300e+00  3.16392700e+00  7.86827240e+00  1.88128850e+00  5.44249300e-01
  7.86827240e+00  1.88128850e+00  5.44249300e-01  1.68714400e-01  1.68714400e-01
  8.00000000e-01  4.38000000e-02  4.38000000e-02  1.87311370e+01  2.82539370e+00
  6.40121700e-01  1.61277800e-01  3.04752490e+03  4.57369510e+02  1.03948690e+02
  2.92101550e+01  9.28666300e+00  3.16392700e+00  7.86827240e+00  1.88128850e+00
  5.44249300e-01  7.86827240e+00  1.88128850e+00  5.44249300e-01  1.68714400e-01
  1.68714400e-01  8.00000000e-01  4.38000000e-02  4.38000000e-02  1.87311370e+01
  2.82539370e+00  6.40121700e-01  1.61277800e-01  5.48467170e+03  8.25234950e+02
  1.88046960e+02  5.29645000e+01  1.68975700e+01  5.79963530e+00  1.55396160e+01
  3.59993360e+00  1.01376180e+00  1.55396160e+01  3.59993360e+00  1.01376180e+00
  2.70005800e-01  2.70005800e-01  8.00000000e-01  8.45000000e-02  8.45000000e-02
  1.87311370e+01  2.82539370e+00  6.40121700e-01  1.61277800e-01  1.87311370e+01
  2.82539370e+00  6.40121700e-01  1.61277800e-01  1.87311370e+01  2.82539370e+00
  6.40121700e-01  1.61277800e-01  1.87311370e+01  2.82539370e+00  6.40121700e-01
  1.61277800e-01  1.87311370e+01  2.82539370e+00  6.40121700e-01  1.61277800e-01
  3.04752490e+03  4.57369510e+02  1.03948690e+02  2.92101550e+01  9.28666300e+00
  3.16392700e+00  7.86827240e+00  1.88128850e+00  5.44249300e-01  7.86827240e+00
  1.88128850e+00  5.44249300e-01  1.68714400e-01  1.68714400e-01  8.00000000e-01
  4.38000000e-02  4.38000000e-02  1.87311370e+01  2.82539370e+00  6.40121700e-01
  1.61277800e-01  1.87311370e+01  2.82539370e+00  6.40121700e-01  1.61277800e-01
  1.87311370e+01  2.82539370e+00  6.40121700e-01  1.61277800e-01  3.04752490e+03
  4.57369510e+02  1.03948690e+02  2.92101550e+01  9.28666300e+00  3.16392700e+00
  7.86827240e+00  1.88128850e+00  5.44249300e-01  7.86827240e+00  1.88128850e+00
  5.44249300e-01  1.68714400e-01  1.68714400e-01  8.00000000e-01  4.38000000e-02
  4.38000000e-02  1.87311370e+01  2.82539370e+00  6.40121700e-01  1.61277800e-01
  1.87311370e+01  2.82539370e+00  6.40121700e-01  1.61277800e-01  1.87311370e+01
  2.82539370e+00  6.40121700e-01  1.61277800e-01  1.87311370e+01  2.82539370e+00
  6.40121700e-01  1.61277800e-01  1.87311370e+01  2.82539370e+00  6.40121700e-01
  1.61277800e-01
Contraction coefficients                   R   N=         306
  1.83470016e-03  1.40373012e-02  6.88426061e-02  2.32184421e-01  4.67941342e-01
  3.62312032e-01 -1.19332409e-01 -1.60854212e-01  1.14345648e+00  6.89990956e-02
  3.16423980e-01  7.44308252e-01  1.00000000e+00  1.00000000e+00  1.00000000e+00
  1.00000000e+00  1.00000000e+00  1.83470016e-03  1.40373012e-02  6.88426061e-02
  2.32184421e-01  4.67941342e-01  3.62312032e-01 -1.19332409e-01 -1.60854212e-01
  1.14345648e+00  6.89990956e-02  3.16423980e-01  7.44308252e-01  1.00000000e+00
  1.00000000e+00  1.00000000e+00  1.00000000e+00  1.00000000e+00  1.83470016e-03
  1.40373012e-02  6.88426061e-02  2.32184421e-01  4.67941342e-01  3.62312032e-01
 -1.19332409e-01 -1.60854212e-01  1.14345648e+00  6.89990956e-02  3.16423980e-01
  7.44308252e-01  1.00000000e+00  1.00000000e+00  1.00000000e+00  1.00000000e+00
  1.00000000e+00  1.83479944e-03  1.39949958e-02  6.85869792e-02  2.32240930e-01
  4.69069858e-01  3.60454891e-01 -1.14961023e-01 -1.69118034e-01  1.14585223e+00
  6.75800232e-02  3.23907111e-01  7.40895255e-01  1.00000000e+00  1.00000000e+00
  1.00000000e+00  1.00000000e+00  1.00000000e+00  1.83470016e-03  1.40373012e-02
  6.88426061e-02  2.32184421e-01  4.67941342e-01  3.62312032e-01 -1.19332409e-01
 -1.60854212e-01  1.14345648e+00  6.89990956e-02  3.16423980e-01  7.44308252e-01
  1.00000000e+00  1.00000000e+00  1.00000000e+00  1.00000000e+00  1.00000000e+00
  1.83470016e-03  1.40373012e-02  6.88426061e-02  2.32184421e-01  4.67941342e-01
  3.62312032e-01 -1.19332409e-01 -1.60854212e-01  1.14345648e+00  6.89990956e-02
  3.16423980e-01  7.44308252e-01  1.00000000e+00  1.00000000e+00  1.00000000e+00
  1.00000000e+00  1.00000000e+00  1.83470016e-03  1.40373012e-02  6.88426061e-02
  2.32184421e-01  4.67941342e-01  3.62312032e-01 -1.19332409e-01 -1.60854212e-01
  1.14345648e+00  6.89990956e-02  3.16423980e-01  7.44308252e-01  1.00000000e+00
  1.00000000e+00  1.00000000e+00  1.00000000e+00  1.00000000e+00  1.83470016e-03
  1.40373012e-02  6.88426061e-02  2.32184421e-01  4.67941342e-01  3.62312032e-01
 -1.19332409e-01 -1.60854212e-01  1.14345648e+00  6.89990956e-02  3.16423980e-01
  7.44308252e-01  1.00000000e+00  1.00000000e+00  1.00000000e+00  1.00000000e+00
  1.00000000e+00  1.83470016e-03  1.40373012e-02  6.88426061e-02  2.32184421e-01
  4.67941342e-01  3.62312032e-01 -1.19332409e-01 -1.60854212e-01  1.14345648e+00
  6.89990956e-02  3.16423980e-01  7.44308252e-01  1.00000000e+00  1.00000000e+00
  1.00000000e+00  1.00000000e+00  1.00000000e+00  3.34945995e-02  2.34726947e-01
  8.13757318e-01  1.00000000e+00  3.34945995e-02  2.34726947e-01  8.13757318e-01
  1.00000000e+00  1.83470016e-03  1.40373012e-02  6.88426061e-02  2.32184421e-01
  4.67941342e-01  3.62312032e-01 -1.19332409e-01 -1.60854212e-01  1.14345648e+00
  6.89990956e-02  3.16423980e-01  7.44308252e-01  1.00000000e+00  1.00000000e+00
  1.00000000e+00  1.00000000e+00  1.00000000e+00  3.34945995e-02  2.34726947e-01
  8.13757318e-01  1.00000000e+00  1.83470016e-03  1.40373012e-02  6.88426061e-02
  2.32184421e-01  4.67941342e-01  3.62312032e-01 -1.19332409e-01 -1.60854212e-01
  1.14345648e+00  6.89990956e-02  3.16423980e-01  7.44308252e-01  1.00000000e+00
  1.00000000e+00  1.00000000e+00  1.00000000e+00  1.00000000e+00  3.34945995e-02
  2.34726947e-01  8.13757318e-01  1.00000000e+00  1.83109981e-03  1.39500985e-02
  6.84450927e-02  2.32714275e-01  4.70192950e-01  3.58520862e-01 -1.10777504e-01
 -1.48026305e-01  1.13076704e+00  7.08742995e-02  3.39752798e-01  7.27158595e-01
  1.00000000e+00  1.00000000e+00  1.00000000e+00  1.00000000e+00  1.00000000e+00
  3.34945995e-02  2.34726947e-01  8.13757318e-01  1.00000000e+00  3.34945995e-02
  2.34726947e-01  8.13757318e-01  1.00000000e+00  3.34945995e-02  2.34726947e-01
  8.13757318e-01  1.00000000e+00  3.34945995e-02  2.34726947e-01  8.13757318e-01
  1.00000000e+00  3.34945995e-02  2.34726947e-01  8.13757318e-01  1.00000000e+00
  1.83470016e-03  1.40373012e-02  6.88426061e-02  2.32184421e-01  4.67941342e-01
  3.62312032e-01 -1.19332409e-01 -1.60854212e-01  1.14345648e+00  6.89990956e-02
  3.16423980e-01  7.44308252e-01  1.00000000e+00  1.00000000e+00  1.00000000e+00
  1.00000000e+00  1.00000000e+00  3.34945995e-02  2.34726947e-01  8.13757318e-01
  1.00000000e+00  3.34945995e-02  2.34726947e-01  8.13757318e-01  1.00000000e+00
  3.34945995e-02  2.34726947e-01  8.13757318e-01  1.00000000e+00  1.83470016e-03
  1.40373012e-02  6.88426061e-02  2.32184421e-01  4.67941342e-01  3.62312032e-01
 -1.19332409e-01 -1.60854212e-01  1.14345648e+00  6.89990956e-02  3.16423980e-01
  7.44308252e-01  1.00000000e+00  1.00000000e+00  1.00000000e+00  1.00000000e+00
  1.00000000e+00  3.34945995e-02  2.34726947e-01  8.13757318e-01  1.00000000e+00
  3.34945995e-02  2.34726947e-01  8.13757318e-01  1.00000000e+00  3.34945995e-02
  2.34726947e-01  8.13757318e-01  1.00000000e+00  3.34945995e-02  2.34726947e-01
  8.13757318e-01  1.00000000e+00  3.34945995e-02  2.34726947e-01  8.13757318e-01
  1.00000000e+00
Coordinates of each shell                  R   N=         438
  6.56636160e-03  3.21176237e-01 -1.42613920e+00  6.56636160e-03  3.21176237e-01
 -1.42613920e+00  6.56636160e-03  3.21176237e-01 -1.42613920e+00  6.56636160e-03
  3.21176237e-01 -1.42613920e+00  6.56636160e-03  3.21176237e-01 -1.42613920e+00
  6.56636160e-03  3.21176237e-01 -1.42613920e+00  6.56636160e-03  3.21176237e-01
 -1.42613920e+00  6.56636160e-03  3.21176237e-01 -1.42613920e+00 -2.46842310e+00
  1.40724913e+00 -5.82715877e-01 -2.46842310e+00  1.40724913e+00 -5.82715877e-01
 -2.46842310e+00  1.40724913e+00 -5.82715877e-01 -2.46842310e+00  1.40724913e+00
 -5.82715877e-01 -2.46842310e+00  1.40724913e+00 -5.82715877e-01 -2.46842310e+00
  1.40724913e+00 -5.82715877e-01 -2.46842310e+00  1.40724913e+00 -5.82715877e-01
 -2.46842310e+00  1.40724913e+00 -5.82715877e-01 -2.89433499e+00  2.46283760e+00
  2.10836598e+00 -2.89433499e+00  2.46283760e+00  2.10836598e+00 -2.89433499e+00
  2.46283760e+00  2.10836598e+00 -2.89433499e+00  2.46283760e+00  2.10836598e+00
 -2.89433499e+00  2.46283760e+00  2.10836598e+00 -2.89433499e+00  2.46283760e+00
  2.10836598e+00 -2.89433499e+00  2.46283760e+00  2.10836598e+00 -2.89433499e+00
  2.46283760e+00  2.10836598e+00 -2.05539196e+00  7.55795441e-01  4.12254720e+00
 -2.05539196e+00  7.55795441e-01  4.12254720e+00 -2.05539196e+00  7.55795441e-01
  4.12254720e+00 -2.05539196e+00  7.55795441e-01  4.12254720e+00 -2.05539196e+00
  7.55795441e-01  4.12254720e+00 -2.05539196e+00  7.55795441e-01  4.12254720e+00
 -2.05539196e+00  7.55795441e-01  4.12254720e+00 -2.05539196e+00  7.55795441e-01
  4.12254720e+00  2.09265995e+00 -5.41183009e-02  1.76364373e-01  2.09265995e+00
 -5.41183009e-02  1.76364373e-01  2.09265995e+00 -5.41183009e-02  1.76364373e-01
  2.09265995e+00 -5.41183009e-02  1.76364373e-01  2.09265995e+00 -5.41183009e-02
  1.76364373e-01  2.09265995e+00 -5.41183009e-02  1.76364373e-01  2.09265995e+00
 -5.41183009e-02  1.76364373e-01  2.09265995e+00 -5.41183009e-02  1.76364373e-01
  4.34870459e+00 -1.03284541e+00 -7.76462512e-01  4.34870459e+00 -1.03284541e+00
 -7.76462512e-01  4.34870459e+00 -1.03284541e+00 -7.76462512e-01  4.34870459e+00
 -1.03284541e+00 -7.76462512e-01  4.34870459e+00 -1.03284541e+00 -7.76462512e-01
  4.34870459e+00 -1.03284541e+00 -7.76462512e-01  4.34870459e+00 -1.03284541e+00
 -7.76462512e-01  4.34870459e+00 -1.03284541e+00 -7.76462512e-01  4.60354090e+00
 -1.67274036e+00 -3.33463694e+00  4.60354090e+00 -1.67274036e+00 -3.33463694e+00
  4.60354090e+00 -1.67274036e+00 -3.33463694e+00  4.60354090e+00 -1.67274036e+00
 -3.33463694e+00  4.60354090e+00 -1.67274036e+00 -3.33463694e+00  4.60354090e+00
 -1.67274036e+00 -3.33463694e+00  4.60354090e+00 -1.67274036e+00 -3.33463694e+00
  4.60354090e+00 -1.67274036e+00 -3.33463694e+00  2.51308648e+00 -1.29250048e+00
 -4.92812677e+00  2.51308648e+00 -1.29250048e+00 -4.92812677e+00  2.51308648e+00
 -1.29250048e+00 -4.92812677e+00  2.51308648e+00 -1.29250048e+00 -4.92812677e+00
  2.51308648e+00 -1.29250048e+00 -4.92812677e+00  2.51308648e+00 -1.29250048e+00
 -4.92812677e+00  2.51308648e+00 -1.29250048e+00 -4.92812677e+00  2.51308648e+00
 -1.29250048e+00 -4.92812677e+00  2.57109961e-01 -3.18446795e-01 -3.99617254e+00
  2.57109961e-01 -3.18446795e-01 -3.99617254e+00  2.57109961e-01 -3.18446795e-01
 -3.99617254e+00  2.57109961e-01 -3.18446795e-01 -3.99617254e+00  2.57109961e-01
 -3.18446795e-01 -3.99617254e+00  2.57109961e-01 -3.18446795e-01 -3.99617254e+00
  2.57109961e-01 -3.18446795e-01 -3.99617254e+00  2.57109961e-01 -3.18446795e-01
 -3.99617254e+00  1.91816634e+00  3.75127235e-01  2.17100514e+00  1.91816634e+00
  3.75127235e-01  2.17100514e+00  5.94038857e+00 -1.30790905e+00  4.96492364e-01
  5.94038857e+00 -1.30790905e+00  4.96492364e-01 -1.59047229e+00  5.04768140e+00
  2.37175360e+00 -1.59047229e+00  5.04768140e+00  2.37175360e+00 -1.59047229e+00
  5.04768140e+00  2.37175360e+00 -1.59047229e+00  5.04768140e+00  2.37175360e+00
 -1.59047229e+00  5.04768140e+00  2.37175360e+00 -1.59047229e+00  5.04768140e+00
  2.37175360e+00 -1.59047229e+00  5.04768140e+00  2.37175360e+00 -1.59047229e+00
  5.04768140e+00  2.37175360e+00 -4.95595092e+00  2.77134086e+00  2.18149155e+00
 -4.95595092e+00  2.77134086e+00  2.18149155e+00 -3.56249109e+00 -1.56185382e+00
  4.34612929e+00 -3.56249109e+00 -1.56185382e+00  4.34612929e+00 -3.56249109e+00
 -1.56185382e+00  4.34612929e+00 -3.56249109e+00 -1.56185382e+00  4.34612929e+00
 -3.56249109e+00 -1.56185382e+00  4.34612929e+00 -3.56249109e+00 -1.56185382e+00
  4.34612929e+00 -3.56249109e+00 -1.56185382e+00  4.34612929e+00 -3.56249109e+00
 -1.56185382e+00  4.34612929e+00 -2.11740635e+00  1.71190440e+00  5.79525245e+00
 -2.11740635e+00  1.71190440e+00  5.79525245e+00 -4.22305805e+00  1.60453234e+00
 -2.08576768e+00 -4.22305805e+00  1.60453234e+00 -2.08576768e+00 -4.22305805e+00
  1.60453234e+00 -2.08576768e+00 -4.22305805e+00  1.60453234e+00 -2.08576768e+00
 -4.22305805e+00  1.60453234e+00 -2.08576768e+00 -4.22305805e+00  1.60453234e+00
 -2.08576768e+00 -4.22305805e+00  1.60453234e+00 -2.08576768e+00 -4.22305805e+00
  1.60453234e+00 -2.08576768e+00  2.66499661e+00 -1.76246536e+00 -6.92441958e+00
  2.66499661e+00 -1.76246536e+00 -6.92441958e+00 -1.34744081e+00 -2.14715668e-02
 -5.23915086e+00 -1.34744081e+00 -2.14715668e-02 -5.23915086e+00  4.68548192e-01
  4.87703037e+00  2.27443525e+00  4.68548192e-01  4.87703037e+00  2.27443525e+00
 -2.08814008e+00  5.90796838e+00  4.19253555e+00 -2.08814008e+00  5.90796838e+00
  4.19253555e+00 -2.21970746e+00  6.33166124e+00  8.76304443e-01 -2.21970746e+00
  6.33166124e+00  8.76304443e-01  7.03066663e+00 -2.78818495e+00 -4.33980042e+00
  7.03066663e+00 -2.78818495e+00 -4.33980042e+00  7.03066663e+00 -2.78818495e+00
 -4.33980042e+00  7.03066663e+00 -2.78818495e+00 -4.33980042e+00  7.03066663e+00
 -2.78818495e+00 -4.33980042e+00  7.03066663e+00 -2.78818495e+00 -4.33980042e+00
  7.03066663e+00 -2.78818495e+00 -4.33980042e+00  7.03066663e+00 -2.78818495e+00
 -4.33980042e+00  8.66819132e+00 -2.15905147e+00 -3.24065533e+00  8.66819132e+00
 -2.15905147e+00 -3.24065533e+00  7.34242479e+00 -2.26670019e+00 -6.31902314e+00
  7.34242479e+00 -2.26670019e+00 -6.31902314e+00  6.98528370e+00 -4.86211060e+00
 -4.24940089e+00  6.98528370e+00 -4.86211060e+00 -4.24940089e+00 -2.71509869e+00
 -3.13409881e+00  6.61265620e+00 -2.71509869e+00 -3.13409881e+00  6.61265620e+00
 -2.71509869e+00 -3.13409881e+00  6.61265620e+00 -2.71509869e+00 -3.13409881e+00
  6.61265620e+00 -2.71509869e+00 -3.13409881e+00  6.61265620e+00 -2.71509869e+00
 -3.13409881e+00  6.61265620e+00 -2.71509869e+00 -3.13409881e+00  6.61265620e+00
 -2.71509869e+00 -3.13409881e+00  6.61265620e+00 -3.30752142e+00 -2.65896201e+00
  2.60489692e+00 -3.30752142e+00 -2.65896201e+00  2.60489692e+00 -5.60632946e+00
 -1.14542805e+00  4.49154145e+00 -5.60632946e+00 -1.14542805e+00  4.49154145e+00
 -7.14867557e-01 -3.64373923e+00  6.44984823e+00 -7.14867557e-01 -3.64373923e+00
  6.44984823e+00 -3.82692060e+00 -4.87638353e+00  6.74697702e+00 -3.82692060e+00
 -4.87638353e+00  6.74697702e+00 -2.97045329e+00 -2.09077768e+00  8.38867663e+00
 -2.97045329e+00 -2.09077768e+00  8.38867663e+00
Total Energy                               R     -5.975143244242855e+02
Alpha Orbital Energies                     R   N=         300
 -1.91424436e+01 -1.43346126e+01 -1.02769589e+01 -1.02273546e+01 -1.02163353e+01
 -1.02143903e+01 -1.02024490e+01 -1.01988581e+01 -1.01986915e+01 -1.01974417e+01
 -1.01973660e+01 -1.01947136e+01 -1.01921194e+01 -1.01853890e+01 -1.04011723e+00
 -9.18658482e-01 -8.65759715e-01 -7.90503485e-01 -7.77101426e-01 -7.52232844e-01
 -7.24751566e-01 -7.05815511e-01 -6.51264706e-01 -6.18101927e-01 -6.13889520e-01
 -6.02252273e-01 -5.53384826e-01 -5.01870669e-01 -4.94038720e-01 -4.73931590e-01
 -4.70634601e-01 -4.57607956e-01 -4.46662732e-01 -4.42390696e-01 -4.29749611e-01
 -4.27612231e-01 -4.21552791e-01 -4.09876976e-01 -4.05922775e-01 -3.92303387e-01
 -3.83152598e-01 -3.81295017e-01 -3.70031958e-01 -3.61616566e-01 -3.56933388e-01
 -3.52476326e-01 -3.44025509e-01 -3.40162061e-01 -2.60404974e-01 -2.55284763e-01
 -2.52117314e-01 -2.35476135e-01 -6.26182036e-02 -1.64583036e-02 -2.85455097e-04
  7.11089868e-03  1.53084573e-02  2.15464749e-02  2.49435291e-02  2.62658128e-02
  3.13290377e-02  3.69916086e-02  4.98623163e-02  5.09717945e-02  5.62968023e-02
  5.82454931e-02  6.11968150e-02  6.57182416e-02  7.49068460e-02  7.65542953e-02
  8.15736144e-02  8.77158933e-02  9.26891205e-02  9.53382470e-02  1.00429287e-01
  1.06246442e-01  1.12283772e-01  1.22002647e-01  1.23702850e-01  1.28989537e-01
  1.32425494e-01  1.40295952e-01  1.44339719e-01  1.52159105e-01  1.53543864e-01
  1.56961430e-01  1.65082593e-01  1.65543116e-01  1.71440017e-01  1.77483630e-01
  1.79315964e-01  1.87022258e-01  1.87322495e-01  1.92308753e-01  1.95547566e-01
  2.03390565e-01  2.03981799e-01  2.11279613e-01  2.14665490e-01  2.15373043e-01
  2.20733365e-01  2.26167984e-01  2.31585897e-01  2.34365226e-01  2.40335127e-01
  2.43500850e-01  2.46837622e-01  2.53172279e-01  2.54644911e-01  2.60535424e-01
  2.65458182e-01  2.68496358e-01  2.70673641e-01  2.71591212e-01  2.82646912e-01
  2.84933835e-01  2.87018934e-01  2.91731891e-01  3.06064939e-01  3.06336069e-01
  3.07816517e-01  3.14424300e-01  3.31967505e-01  3.36391401e-01  3.40907815e-01
  3.43684413e-01  3.48268548e-01  3.49158575e-01  3.58536482e-01  3.72845931e-01
  3.79650219e-01  3.83862820e-01  3.93624964e-01  4.02645712e-01  4.19728552e-01
  4.38060756e-01  4.44774341e-01  4.48645093e-01  4.75233216e-01  4.86243553e-01
  5.12619980e-01  5.89849216e-01  6.12351960e-01  6.47480218e-01  6.64594879e-01
  6.70297662e-01  6.74849012e-01  6.85392924e-01  6.88444948e-01  7.01072504e-01
  7.09716794e-01  7.13189758e-01  7.16280689e-01  7.21973295e-01  7.26131110e-01
  7.36855991e-01  7.53432208e-01  7.61039105e-01  7.63534538e-01  7.74863905e-01