Generated by Psi4
     FORCE                           RHF                       TESTBAS
Number of atoms                            I               30
Charge                                     I                0
Multiplicity                               I                1
Number of electrons                        I              102
Number of alpha electrons                  I               51
Number of beta electrons                   I               51
Number of basis functions                  I              298
Number of independent functions            I              298
Atomic numbers                             I   N=          30
           6           6           6           1           1           7
           6           6           6           6           6           6
           1           1           1           1           1           1
           1           1           1           6           7           1
           1           6           1           1           1           6
Nuclear charges                            R   N=          30
  6.00000000e+00  6.00000000e+00  6.00000000e+00  1.00000000e+00  1.00000000e+00
  7.00000000e+00  6.00000000e+00  6.00000000e+00  6.00000000e+00  6.00000000e+00
  6.00000000e+00  6.00000000e+00  1.00000000e+00  1.00000000e+00  1.00000000e+00
  1.00000000e+00  1.00000000e+00  1.00000000e+00  1.00000000e+00  1.00000000e+00
  1.00000000e+00  6.00000000e+00  7.00000000e+00  1.00000000e+00  1.00000000e+00
  6.00000000e+00  1.00000000e+00  1.00000000e+00  1.00000000e+00  6.00000000e+00
Current cartesian coordinates              R   N=          90
 -3.51919521e-02 -3.54017071e-01  2.41309156e+00 -1.40871291e+00 -1.24372168e+00
  4.75980432e+00 -4.31301051e+00 -7.62775725e-01  4.75003313e+00 -5.99957382e-01
 -3.30137217e-01  6.44020250e+00 -1.10963468e+00 -3.28646995e+00  4.99249019e+00
 -5.62547586e+00 -1.94466446e+00  6.89226667e+00  1.43881957e+00  1.85843672e+00
  2.44464356e+00  2.68591360e+00  2.72571165e+00  2.83623257e-01  2.45570030e+00
  1.35560277e+00 -1.95916663e+00  9.84781730e-01 -8.67301773e-01 -2.00051681e+00
 -2.49988126e-01 -1.73420104e+00  1.45487151e-01 -4.96196425e+00  2.05469104e+00
  4.70478918e+00 -5.09115163e+00 -1.63611959e+00  3.03402849e+00 -1.36565564e+00
 -3.46354423e+00  1.09840375e-01  3.82582491e+00  4.43353334e+00  3.31657999e-01
  1.61119530e+00  2.90955939e+00  4.20303805e+00 -5.05141838e+00 -1.15967943e+00
  8.55688527e+00 -5.23512577e+00 -3.82768173e+00  6.99641102e+00 -4.25963673e+00
  2.99789094e+00  6.41806744e+00 -7.01365202e+00  2.31004359e+00  4.63031510e+00
 -4.11172088e+00  2.99968683e+00  3.07268832e+00  1.12080424e+00 -1.90643663e+00
 -4.63466497e+00  2.77629614e+00 -3.91984117e-03 -5.87927071e+00 -7.17854937e-01
 -1.99260690e+00 -5.59335011e+00  1.98627834e+00 -3.78948603e+00 -4.74492081e+00
  3.39411048e+00 -3.24118567e-01 -8.54072017e+00  1.67225283e+00 -3.14113555e-01
 -9.69624458e+00  4.38395345e+00 -2.12011644e+00 -8.84885357e+00  4.61101817e+00
  1.24113394e+00 -9.09939829e+00  3.59635455e+00  1.89426551e+00 -4.45577419e+00
Integer atomic weights                     I   N=          30
          12          12          12           1           1          14
          12          12          12          12          12          12
           1           1           1           1           1           1
           1           1           1          12          14           1
           1          12           1           1           1          12
Real atomic weights                        R   N=          30
  1.20000000e+01  1.20000000e+01  1.20000000e+01  1.00782503e+00  1.00782503e+00
  1.40030740e+01  1.20000000e+01  1.20000000e+01  1.20000000e+01  1.20000000e+01
  1.20000000e+01  1.20000000e+01  1.00782503e+00  1.00782503e+00  1.00782503e+00
  1.00782503e+00  1.00782503e+00  1.00782503e+00  1.00782503e+00  1.00782503e+00
  1.00782503e+00  1.20000000e+01  1.40030740e+01  1.00782503e+00  1.00782503e+00
  1.20000000e+01  1.00782503e+00  1.00782503e+00  1.00782503e+00  1.20000000e+01
Number of primitive shells                 I              302
Number of contracted shells                I              144
Pure/Cartesian d shells                    I                1
Pure/Cartesian f shells                    I                1
Highest angular momentum                   I                2
Largest degree of contraction              I                6
Shell types                                I   N=         144
           0           0           1           0           1           2
           0           1           0           0           1           0
           1           2           0           1           0           0
           1           0           1           2           0           1
           0           0           0           0           0           0
           1           0           1           2           0           1
           0           0           1           0           1           2
           0           1           0           0           1           0
           1           2           0           1           0           0
           1           0           1           2           0           1
           0           0           1           0           1           2
           0           1           0           0           1           0
           1           2           0           1           0           0
           1           0           1           2           0           1
           0           0           0           0           0           0
           0           0           0           0           0           0
           0           0           0           0           0           0
           0           0           1           0           1           2
           0           1           0           0           1           0
           1           2           0           1           0           0
           0           0           0           0           1           0
           1           2           0           1           0           0
           0           0           0           0           0           0
           1           0           1           2           0           1
Number of primitives per shell             I   N=         144
           6           3           3           1           1           1
           1           1           6           3           3           1
           1           1           1           1           6           3
           3           1           1           1           1           1
           3           1           3           1           6           3
           3           1           1           1           1           1
           6           3           3           1           1           1
           1           1           6           3           3           1
           1           1           1           1           6           3
           3           1           1           1           1           1
           6           3           3           1           1           1
           1           1           6           3           3           1
           1           1           1           1           6           3
           3           1           1           1           1           1
           3           1           3           1           3           1
           3           1           3           1           3           1
           3           1           3           1           3           1
           6           3           3           1           1           1
           1           1           6           3           3           1
           1           1           1           1           3           1
           3           1           6           3           3           1
           1           1           1           1           3           1
           3           1           3           1           6           3
           3           1           1           1           1           1
Shell to atom map                          I   N=         144
           1           1           1           1           1           1
           1           1           2           2           2           2
           2           2           2           2           3           3
           3           3           3           3           3           3
           4           4           5           5           6           6
           6           6           6           6           6           6
           7           7           7           7           7           7
           7           7           8           8           8           8
           8           8           8           8           9           9
           9           9           9           9           9           9
          10          10          10          10          10          10
          10          10          11          11          11          11
          11          11          11          11          12          12
          12          12          12          12          12          12
          13          13          14          14          15          15
          16          16          17          17          18          18
          19          19          20          20          21          21
          22          22          22          22          22          22
          22          22          23          23          23          23
          23          23          23          23          24          24
          25          25          26          26          26          26
          26          26          26          26          27          27
          28          28          29          29          30          30
          30          30          30          30          30          30
Primitive exponents                        R   N=         302
  3.04752490e+03  4.57369510e+02  1.03948690e+02  2.92101550e+01  9.28666300e+00
  3.16392700e+00  7.86827240e+00  1.88128850e+00  5.44249300e-01  7.86827240e+00
  1.88128850e+00  5.44249300e-01  1.68714400e-01  1.68714400e-01  8.00000000e-01
  4.38000000e-02  4.38000000e-02  3.04752490e+03  4.57369510e+02  1.03948690e+02
  2.92101550e+01  9.28666300e+00  3.16392700e+00  7.86827240e+00  1.88128850e+00
  5.44249300e-01  7.86827240e+00  1.88128850e+00  5.44249300e-01  1.68714400e-01
  1.68714400e-01  8.00000000e-01  4.38000000e-02  4.38000000e-02  3.04752490e+03
  4.57369510e+02  1.03948690e+02  2.92101550e+01  9.28666300e+00  3.16392700e+00
  7.86827240e+00  1.88128850e+00  5.44249300e-01  7.86827240e+00  1.88128850e+00
  5.44249300e-01  1.68714400e-01  1.68714400e-01  8.00000000e-01  4.38000000e-02
  4.38000000e-02  1.87311370e+01  2.82539370e+00  6.40121700e-01  1.61277800e-01
  1.87311370e+01  2.82539370e+00  6.40121700e-01  1.61277800e-01  4.17351100e+03
  6.27457900e+02  1.42902100e+02  4.02343300e+01  1.28202100e+01  4.39043700e+00
  1.16263580e+01  2.71628000e+00  7.72218000e-01  1.16263580e+01  2.71628000e+00
  7.72218000e-01  2.12031300e-01  2.12031300e-01  8.00000000e-01  6.39000000e-02
  6.39000000e-02  3.04752490e+03  4.57369510e+02  1.03948690e+02  2.92101550e+01
  9.28666300e+00  3.16392700e+00  7.86827240e+00  1.88128850e+00  5.44249300e-01
  7.86827240e+00  1.88128850e+00  5.44249300e-01  1.68714400e-01  1.68714400e-01
  8.00000000e-01  4.38000000e-02  4.38000000e-02  3.04752490e+03  4.57369510e+02
  1.03948690e+02  2.92101550e+01  9.28666300e+00  3.16392700e+00  7.86827240e+00
  1.88128850e+00  5.44249300e-01  7.86827240e+00  1.88128850e+00  5.44249300e-01
  1.68714400e-01  1.68714400e-01  8.00000000e-01  4.38000000e-02  4.38000000e-02
  3.04752490e+03  4.57369510e+02  1.03948690e+02  2.92101550e+01  9.28666300e+00
  3.16392700e+00  7.86827240e+00  1.88128850e+00  5.44249300e-01  7.86827240e+00
  1.88128850e+00  5.44249300e-01  1.68714400e-01  1.68714400e-01  8.00000000e-01
  4.38000000e-02  4.38000000e-02  3.04752490e+03  4.57369510e+02  1.03948690e+02
  2.92101550e+01  9.28666300e+00  3.16392700e+00  7.86827240e+00  1.88128850e+00
  5.44249300e-01  7.86827240e+00  1.88128850e+00  5.44249300e-01  1.68714400e-01
  1.68714400e-01  8.00000000e-01  4.38000000e-02  4.38000000e-02  3.04752490e+03
  4.57369510e+02  1.03948690e+02  2.92101550e+01  9.28666300e+00  3.16392700e+00
  7.86827240e+00  1.88128850e+00  5.44249300e-01  7.86827240e+00  1.88128850e+00
  5.44249300e-01  1.68714400e-01  1.68714400e-01  8.00000000e-01  4.38000000e-02
  4.38000000e-02  3.04752490e+03  4.57369510e+02  1.03948690e+02  2.92101550e+01
  9.28666300e+00  3.16392700e+00  7.86827240e+00  1.88128850e+00  5.44249300e-01
  7.86827240e+00  1.88128850e+00  5.44249300e-01  1.68714400e-01  1.68714400e-01
  8.00000000e-01  4.38000000e-02  4.38000000e-02  1.87311370e+01  2.82539370e+00
  6.40121700e-01  1.61277800e-01  1.87311370e+01  2.82539370e+00  6.40121700e-01
  1.61277800e-01  1.87311370e+01  2.82539370e+00  6.40121700e-01  1.61277800e-01
  1.87311370e+01  2.82539370e+00  6.40121700e-01  1.61277800e-01  1.87311370e+01
  2.82539370e+00  6.40121700e-01  1.61277800e-01  1.87311370e+01  2.82539370e+00
  6.40121700e-01  1.61277800e-01  1.87311370e+01  2.82539370e+00  6.40121700e-01
  1.61277800e-01  1.87311370e+01  2.82539370e+00  6.40121700e-01  1.61277800e-01
  1.87311370e+01  2.82539370e+00  6.40121700e-01  1.61277800e-01  3.04752490e+03
  4.57369510e+02  1.03948690e+02  2.92101550e+01  9.28666300e+00  3.16392700e+00
  7.86827240e+00  1.88128850e+00  5.44249300e-01  7.86827240e+00  1.88128850e+00
  5.44249300e-01  1.68714400e-01  1.68714400e-01  8.00000000e-01  4.38000000e-02
  4.38000000e-02  4.17351100e+03  6.27457900e+02  1.42902100e+02  4.02343300e+01
  1.28202100e+01  4.39043700e+00  1.16263580e+01  2.71628000e+00  7.72218000e-01
  1.16263580e+01  2.71628000e+00  7.72218000e-01  2.12031300e-01  2.12031300e-01
  8.00000000e-01  6.39000000e-02  6.39000000e-02  1.87311370e+01  2.82539370e+00
  6.40121700e-01  1.61277800e-01  1.87311370e+01  2.82539370e+00  6.40121700e-01
  1.61277800e-01  3.04752490e+03  4.57369510e+02  1.03948690e+02  2.92101550e+01
  9.28666300e+00  3.16392700e+00  7.86827240e+00  1.88128850e+00  5.44249300e-01
  7.86827240e+00  1.88128850e+00  5.44249300e-01  1.68714400e-01  1.68714400e-01
  8.00000000e-01  4.38000000e-02  4.38000000e-02  1.87311370e+01  2.82539370e+00
  6.40121700e-01  1.61277800e-01  1.87311370e+01  2.82539370e+00  6.40121700e-01
  1.61277800e-01  1.87311370e+01  2.82539370e+00  6.40121700e-01  1.61277800e-01
  3.04752490e+03  4.57369510e+02  1.03948690e+02  2.92101550e+01  9.28666300e+00
  3.16392700e+00  7.86827240e+00  1.88128850e+00  5.44249300e-01  7.86827240e+00
  1.88128850e+00  5.44249300e-01  1.68714400e-01  1.68714400e-01  8.00000000e-01
  4.38000000e-02  4.38000000e-02
Contraction coefficients                   R   N=         302
  1.83470016e-03  1.40373012e-02  6.88426061e-02  2.32184421e-01  4.67941342e-01
  3.62312032e-01 -1.19332409e-01 -1.60854212e-01  1.14345648e+00  6.89990956e-02
  3.16423980e-01  7.44308252e-01  1.00000000e+00  1.00000000e+00  1.00000000e+00
  1.00000000e+00  1.00000000e+00  1.83470016e-03  1.40373012e-02  6.88426061e-02
  2.32184421e-01  4.67941342e-01  3.62312032e-01 -1.19332409e-01 -1.60854212e-01
  1.14345648e+00  6.89990956e-02  3.16423980e-01  7.44308252e-01  1.00000000e+00
  1.00000000e+00  1.00000000e+00  1.00000000e+00  1.00000000e+00  1.83470016e-03
  1.40373012e-02  6.88426061e-02  2.32184421e-01  4.67941342e-01  3.62312032e-01
 -1.19332409e-01 -1.60854212e-01  1.14345648e+00  6.89990956e-02  3.16423980e-01
  7.44308252e-01  1.00000000e+00  1.00000000e+00  1.00000000e+00  1.00000000e+00
  1.00000000e+00  3.34945995e-02  2.34726947e-01  8.13757318e-01  1.00000000e+00
  3.34945995e-02  2.34726947e-01  8.13757318e-01  1.00000000e+00  1.83479944e-03
  1.39949958e-02  6.85869792e-02  2.32240930e-01  4.69069858e-01  3.60454891e-01
 -1.14961023e-01 -1.69118034e-01  1.14585223e+00  6.75800232e-02  3.23907111e-01
  7.40895255e-01  1.00000000e+00  1.00000000e+00  1.00000000e+00  1.00000000e+00
  1.00000000e+00  1.83470016e-03  1.40373012e-02  6.88426061e-02  2.32184421e-01
  4.67941342e-01  3.62312032e-01 -1.19332409e-01 -1.60854212e-01  1.14345648e+00
  6.89990956e-02  3.16423980e-01  7.44308252e-01  1.00000000e+00  1.00000000e+00
  1.00000000e+00  1.00000000e+00  1.00000000e+00  1.83470016e-03  1.40373012e-02
  6.88426061e-02  2.32184421e-01  4.67941342e-01  3.62312032e-01 -1.19332409e-01
 -1.60854212e-01  1.14345648e+00  6.89990956e-02  3.16423980e-01  7.44308252e-01
  1.00000000e+00  1.00000000e+00  1.00000000e+00  1.00000000e+00  1.00000000e+00
  1.83470016e-03  1.40373012e-02  6.88426061e-02  2.32184421e-01  4.67941342e-01
  3.62312032e-01 -1.19332409e-01 -1.60854212e-01  1.14345648e+00  6.89990956e-02
  3.16423980e-01  7.44308252e-01  1.00000000e+00  1.00000000e+00  1.00000000e+00
  1.00000000e+00  1.00000000e+00  1.83470016e-03  1.40373012e-02  6.88426061e-02
  2.32184421e-01  4.67941342e-01  3.62312032e-01 -1.19332409e-01 -1.60854212e-01
  1.14345648e+00  6.89990956e-02  3.16423980e-01  7.44308252e-01  1.00000000e+00
  1.00000000e+00  1.00000000e+00  1.00000000e+00  1.00000000e+00  1.83470016e-03
  1.40373012e-02  6.88426061e-02  2.32184421e-01  4.67941342e-01  3.62312032e-01
 -1.19332409e-01 -1.60854212e-01  1.14345648e+00  6.89990956e-02  3.16423980e-01
  7.44308252e-01  1.00000000e+00  1.00000000e+00  1.00000000e+00  1.00000000e+00
  1.00000000e+00  1.83470016e-03  1.40373012e-02  6.88426061e-02  2.32184421e-01
  4.67941342e-01  3.62312032e-01 -1.19332409e-01 -1.60854212e-01  1.14345648e+00
  6.89990956e-02  3.16423980e-01  7.44308252e-01  1.00000000e+00  1.00000000e+00
  1.00000000e+00  1.00000000e+00  1.00000000e+00  3.34945995e-02  2.34726947e-01
  8.13757318e-01  1.00000000e+00  3.34945995e-02  2.34726947e-01  8.13757318e-01
  1.00000000e+00  3.34945995e-02  2.34726947e-01  8.13757318e-01  1.00000000e+00
  3.34945995e-02  2.34726947e-01  8.13757318e-01  1.00000000e+00  3.34945995e-02
  2.34726947e-01  8.13757318e-01  1.00000000e+00  3.34945995e-02  2.34726947e-01
  8.13757318e-01  1.00000000e+00  3.34945995e-02  2.34726947e-01  8.13757318e-01
  1.00000000e+00  3.34945995e-02  2.34726947e-01  8.13757318e-01  1.00000000e+00
  3.34945995e-02  2.34726947e-01  8.13757318e-01  1.00000000e+00  1.83470016e-03
  1.40373012e-02  6.88426061e-02  2.32184421e-01  4.67941342e-01  3.62312032e-01
 -1.19332409e-01 -1.60854212e-01  1.14345648e+00  6.89990956e-02  3.16423980e-01
  7.44308252e-01  1.00000000e+00  1.00000000e+00  1.00000000e+00  1.00000000e+00
  1.00000000e+00  1.83479944e-03  1.39949958e-02  6.85869792e-02  2.32240930e-01
  4.69069858e-01  3.60454891e-01 -1.14961023e-01 -1.69118034e-01  1.14585223e+00
  6.75800232e-02  3.23907111e-01  7.40895255e-01  1.00000000e+00  1.00000000e+00
  1.00000000e+00  1.00000000e+00  1.00000000e+00  3.34945995e-02  2.34726947e-01
  8.13757318e-01  1.00000000e+00  3.34945995e-02  2.34726947e-01  8.13757318e-01
  1.00000000e+00  1.83470016e-03  1.40373012e-02  6.88426061e-02  2.32184421e-01
  4.67941342e-01  3.62312032e-01 -1.19332409e-01 -1.60854212e-01  1.14345648e+00
  6.89990956e-02  3.16423980e-01  7.44308252e-01  1.00000000e+00  1.00000000e+00
  1.00000000e+00  1.00000000e+00  1.00000000e+00  3.34945995e-02  2.34726947e-01
  8.13757318e-01  1.00000000e+00  3.34945995e-02  2.34726947e-01  8.13757318e-01
  1.00000000e+00  3.34945995e-02  2.34726947e-01  8.13757318e-01  1.00000000e+00
  1.83470016e-03  1.40373012e-02  6.88426061e-02  2.32184421e-01  4.67941342e-01
  3.62312032e-01 -1.19332409e-01 -1.60854212e-01  1.14345648e+00  6.89990956e-02
  3.16423980e-01  7.44308252e-01  1.00000000e+00  1.00000000e+00  1.00000000e+00
  1.00000000e+00  1.00000000e+00
Coordinates of each shell                  R   N=         432
 -3.51919521e-02 -3.54017071e-01  2.41309156e+00 -3.51919521e-02 -3.54017071e-01
  2.41309156e+00 -3.51919521e-02 -3.54017071e-01  2.41309156e+00 -3.51919521e-02
 -3.54017071e-01  2.41309156e+00 -3.51919521e-02 -3.54017071e-01  2.41309156e+00
 -3.51919521e-02 -3.54017071e-01  2.41309156e+00 -3.51919521e-02 -3.54017071e-01
  2.41309156e+00 -3.51919521e-02 -3.54017071e-01  2.41309156e+00 -1.40871291e+00
 -1.24372168e+00  4.75980432e+00 -1.40871291e+00 -1.24372168e+00  4.75980432e+00
 -1.40871291e+00 -1.24372168e+00  4.75980432e+00 -1.40871291e+00 -1.24372168e+00
  4.75980432e+00 -1.40871291e+00 -1.24372168e+00  4.75980432e+00 -1.40871291e+00
 -1.24372168e+00  4.75980432e+00 -1.40871291e+00 -1.24372168e+00  4.75980432e+00
 -1.40871291e+00 -1.24372168e+00  4.75980432e+00 -4.31301051e+00 -7.62775725e-01
  4.75003313e+00 -4.31301051e+00 -7.62775725e-01  4.75003313e+00 -4.31301051e+00
 -7.62775725e-01  4.75003313e+00 -4.31301051e+00 -7.62775725e-01  4.75003313e+00
 -4.31301051e+00 -7.62775725e-01  4.75003313e+00 -4.31301051e+00 -7.62775725e-01
  4.75003313e+00 -4.31301051e+00 -7.62775725e-01  4.75003313e+00 -4.31301051e+00
 -7.62775725e-01  4.75003313e+00 -5.99957382e-01 -3.30137217e-01  6.44020250e+00
 -5.99957382e-01 -3.30137217e-01  6.44020250e+00 -1.10963468e+00 -3.28646995e+00
  4.99249019e+00 -1.10963468e+00 -3.28646995e+00  4.99249019e+00 -5.62547586e+00
 -1.94466446e+00  6.89226667e+00 -5.62547586e+00 -1.94466446e+00  6.89226667e+00
 -5.62547586e+00 -1.94466446e+00  6.89226667e+00 -5.62547586e+00 -1.94466446e+00
  6.89226667e+00 -5.62547586e+00 -1.94466446e+00  6.89226667e+00 -5.62547586e+00
 -1.94466446e+00  6.89226667e+00 -5.62547586e+00 -1.94466446e+00  6.89226667e+00
 -5.62547586e+00 -1.94466446e+00  6.89226667e+00  1.43881957e+00  1.85843672e+00
  2.44464356e+00  1.43881957e+00  1.85843672e+00  2.44464356e+00  1.43881957e+00
  1.85843672e+00  2.44464356e+00  1.43881957e+00  1.85843672e+00  2.44464356e+00
  1.43881957e+00  1.85843672e+00  2.44464356e+00  1.43881957e+00  1.85843672e+00
  2.44464356e+00  1.43881957e+00  1.85843672e+00  2.44464356e+00  1.43881957e+00
  1.85843672e+00  2.44464356e+00  2.68591360e+00  2.72571165e+00  2.83623257e-01
  2.68591360e+00  2.72571165e+00  2.83623257e-01  2.68591360e+00  2.72571165e+00
  2.83623257e-01  2.68591360e+00  2.72571165e+00  2.83623257e-01  2.68591360e+00
  2.72571165e+00  2.83623257e-01  2.68591360e+00  2.72571165e+00  2.83623257e-01
  2.68591360e+00  2.72571165e+00  2.83623257e-01  2.68591360e+00  2.72571165e+00
  2.83623257e-01  2.45570030e+00  1.35560277e+00 -1.95916663e+00  2.45570030e+00
  1.35560277e+00 -1.95916663e+00  2.45570030e+00  1.35560277e+00 -1.95916663e+00
  2.45570030e+00  1.35560277e+00 -1.95916663e+00  2.45570030e+00  1.35560277e+00
 -1.95916663e+00  2.45570030e+00  1.35560277e+00 -1.95916663e+00  2.45570030e+00
  1.35560277e+00 -1.95916663e+00  2.45570030e+00  1.35560277e+00 -1.95916663e+00
  9.84781730e-01 -8.67301773e-01 -2.00051681e+00  9.84781730e-01 -8.67301773e-01
 -2.00051681e+00  9.84781730e-01 -8.67301773e-01 -2.00051681e+00  9.84781730e-01
 -8.67301773e-01 -2.00051681e+00  9.84781730e-01 -8.67301773e-01 -2.00051681e+00
  9.84781730e-01 -8.67301773e-01 -2.00051681e+00  9.84781730e-01 -8.67301773e-01
 -2.00051681e+00  9.84781730e-01 -8.67301773e-01 -2.00051681e+00 -2.49988126e-01
 -1.73420104e+00  1.45487151e-01 -2.49988126e-01 -1.73420104e+00  1.45487151e-01
 -2.49988126e-01 -1.73420104e+00  1.45487151e-01 -2.49988126e-01 -1.73420104e+00
  1.45487151e-01 -2.49988126e-01 -1.73420104e+00  1.45487151e-01 -2.49988126e-01
 -1.73420104e+00  1.45487151e-01 -2.49988126e-01 -1.73420104e+00  1.45487151e-01
 -2.49988126e-01 -1.73420104e+00  1.45487151e-01 -4.96196425e+00  2.05469104e+00
  4.70478918e+00 -4.96196425e+00  2.05469104e+00  4.70478918e+00 -4.96196425e+00
  2.05469104e+00  4.70478918e+00 -4.96196425e+00  2.05469104e+00  4.70478918e+00
 -4.96196425e+00  2.05469104e+00  4.70478918e+00 -4.96196425e+00  2.05469104e+00
  4.70478918e+00 -4.96196425e+00  2.05469104e+00  4.70478918e+00 -4.96196425e+00
  2.05469104e+00  4.70478918e+00 -5.09115163e+00 -1.63611959e+00  3.03402849e+00
 -5.09115163e+00 -1.63611959e+00  3.03402849e+00 -1.36565564e+00 -3.46354423e+00
  1.09840375e-01 -1.36565564e+00 -3.46354423e+00  1.09840375e-01  3.82582491e+00
  4.43353334e+00  3.31657999e-01  3.82582491e+00  4.43353334e+00  3.31657999e-01
  1.61119530e+00  2.90955939e+00  4.20303805e+00  1.61119530e+00  2.90955939e+00
  4.20303805e+00 -5.05141838e+00 -1.15967943e+00  8.55688527e+00 -5.05141838e+00
 -1.15967943e+00  8.55688527e+00 -5.23512577e+00 -3.82768173e+00  6.99641102e+00
 -5.23512577e+00 -3.82768173e+00  6.99641102e+00 -4.25963673e+00  2.99789094e+00
  6.41806744e+00 -4.25963673e+00  2.99789094e+00  6.41806744e+00 -7.01365202e+00
  2.31004359e+00  4.63031510e+00 -7.01365202e+00  2.31004359e+00  4.63031510e+00
 -4.11172088e+00  2.99968683e+00  3.07268832e+00 -4.11172088e+00  2.99968683e+00
  3.07268832e+00  1.12080424e+00 -1.90643663e+00 -4.63466497e+00  1.12080424e+00
 -1.90643663e+00 -4.63466497e+00  1.12080424e+00 -1.90643663e+00 -4.63466497e+00
  1.12080424e+00 -1.90643663e+00 -4.63466497e+00  1.12080424e+00 -1.90643663e+00
 -4.63466497e+00  1.12080424e+00 -1.90643663e+00 -4.63466497e+00  1.12080424e+00
 -1.90643663e+00 -4.63466497e+00  1.12080424e+00 -1.90643663e+00 -4.63466497e+00
  2.77629614e+00 -3.91984117e-03 -5.87927071e+00  2.77629614e+00 -3.91984117e-03
 -5.87927071e+00  2.77629614e+00 -3.91984117e-03 -5.87927071e+00  2.77629614e+00
 -3.91984117e-03 -5.87927071e+00  2.77629614e+00 -3.91984117e-03 -5.87927071e+00
  2.77629614e+00 -3.91984117e-03 -5.87927071e+00  2.77629614e+00 -3.91984117e-03
 -5.87927071e+00  2.77629614e+00 -3.91984117e-03 -5.87927071e+00 -7.17854937e-01
 -1.99260690e+00 -5.59335011e+00 -7.17854937e-01 -1.99260690e+00 -5.59335011e+00
  1.98627834e+00 -3.78948603e+00 -4.74492081e+00  1.98627834e+00 -3.78948603e+00
 -4.74492081e+00  3.39411048e+00 -3.24118567e-01 -8.54072017e+00  3.39411048e+00
 -3.24118567e-01 -8.54072017e+00  3.39411048e+00 -3.24118567e-01 -8.54072017e+00
  3.39411048e+00 -3.24118567e-01 -8.54072017e+00  3.39411048e+00 -3.24118567e-01
 -8.54072017e+00  3.39411048e+00 -3.24118567e-01 -8.54072017e+00  3.39411048e+00
 -3.24118567e-01 -8.54072017e+00  3.39411048e+00 -3.24118567e-01 -8.54072017e+00
  1.67225283e+00 -3.14113555e-01 -9.69624458e+00  1.67225283e+00 -3.14113555e-01
 -9.69624458e+00  4.38395345e+00 -2.12011644e+00 -8.84885357e+00  4.38395345e+00
 -2.12011644e+00 -8.84885357e+00  4.61101817e+00  1.24113394e+00 -9.09939829e+00
  4.61101817e+00  1.24113394e+00 -9.09939829e+00  3.59635455e+00  1.89426551e+00
 -4.45577419e+00  3.59635455e+00  1.89426551e+00 -4.45577419e+00  3.59635455e+00
  1.89426551e+00 -4.45577419e+00  3.59635455e+00  1.89426551e+00 -4.45577419e+00
  3.59635455e+00  1.89426551e+00 -4.45577419e+00  3.59635455e+00  1.89426551e+00
 -4.45577419e+00  3.59635455e+00  1.89426551e+00 -4.45577419e+00  3.59635455e+00
  1.89426551e+00 -4.45577419e+00
Total Energy                               R     -5.763755541268346e+02
Alpha Orbital Energies                     R   N=         298
 -1.43913694e+01 -1.43264524e+01 -1.02411039e+01 -1.02255969e+01 -1.02250683e+01
 -1.02112990e+01 -1.02091218e+01 -1.02030584e+01 -1.01983146e+01 -1.01970456e+01
 -1.01965395e+01 -1.01900077e+01 -1.01886672e+01 -1.01781517e+01 -9.78219402e-01
 -8.96151694e-01 -8.65258486e-01 -7.99383606e-01 -7.73292452e-01 -7.49902594e-01
 -7.22188614e-01 -7.14148267e-01 -6.80172481e-01 -6.16885401e-01 -5.95879779e-01
 -5.75523870e-01 -5.60389210e-01 -5.10278091e-01 -5.01315870e-01 -4.93143328e-01
 -4.84383300e-01 -4.70590020e-01 -4.60526980e-01 -4.49786276e-01 -4.30653388e-01
 -4.30315089e-01 -4.27093537e-01 -4.03448762e-01 -3.99981749e-01 -3.89163623e-01
 -3.74987740e-01 -3.72106736e-01 -3.57890349e-01 -3.49511149e-01 -3.48843995e-01
 -3.39297135e-01 -3.14203011e-01 -2.58276083e-01 -2.55509818e-01 -2.35329125e-01
 -2.03058928e-01 -5.01308554e-02 -2.14836108e-02 -5.87837416e-03  3.00029729e-04
  1.35276151e-02  1.62669957e-02  1.79504777e-02  3.35538036e-02  3.59950638e-02
  3.74653654e-02  4.39456530e-02  5.08849264e-02  5.21558592e-02  5.60048676e-02
  6.11664044e-02  6.86783663e-02  7.09317287e-02  7.39252304e-02  8.01000495e-02
  8.64917484e-02  9.53884769e-02  9.70291103e-02  1.02848666e-01  1.09549658e-01
  1.12834392e-01  1.17378490e-01  1.19626989e-01  1.27303304e-01  1.34908626e-01
  1.41802784e-01  1.43864726e-01  1.48688841e-01  1.50385578e-01  1.55217994e-01
  1.62321032e-01  1.64646634e-01  1.73001064e-01  1.76093775e-01  1.81856583e-01
  1.85335346e-01  1.87474880e-01  1.95530536e-01  1.97189171e-01  2.00983122e-01
  2.02948628e-01  2.03773725e-01  2.07094189e-01  2.13460559e-01  2.16124144e-01
  2.25328676e-01  2.27444458e-01  2.31791562e-01  2.32518665e-01  2.37410889e-01
  2.39005051e-01  2.42170925e-01  2.49909981e-01  2.55026109e-01  2.59434782e-01
  2.63508379e-01  2.64700890e-01  2.66412325e-01  2.76561589e-01  2.78184383e-01
  2.86280108e-01  2.88072898e-01  2.93456224e-01  2.96711437e-01  3.00145347e-01
  3.01804021e-01  3.04278225e-01  3.19413192e-01  3.24610056e-01  3.28781527e-01
  3.33858344e-01  3.42184979e-01  3.49875616e-01  3.68112769e-01  3.71758045e-01
  3.76074261e-01  3.81721022e-01  3.94340974e-01  4.04813831e-01  4.32546028e-01
  4.41661946e-01  4.44622277e-01  4.64259845e-01  4.74802411e-01  5.00483540e-01
  5.86755316e-01  6.07223601e-01  6.46822610e-01  6.54358004e-01  6.55567112e-01
  6.66544811e-01  6.70963462e-01  6.82975323e-01  6.88164211e-01  6.92314425e-01
  7.04233424e-01  7.15222783e-01  7.31095431e-01  7.37056083e-01  7.46432351e-01
  7.53274698e-01  7.58754990e-01  7.69001732e-01  7.75397213e-01  7.83022160e-01
  7.86097310e-01  7.92264439e-01  8.06268997e-01  8.13636888e-01  8.20924067e-01
  8.24068137e-01  8.55522268e-01  8.83541280e-01  8.99202528e-01  9.01293233e-01
  9.03067131e-01  9.13910780e-01  9.40806508e-01  9.43442484e-01  9.55148074e-01
  9.56943302e-01  9.76609367e-01  9.79746474e-01  9.99016607e-01  1.00189825e+00
  1.01063136e+00  1.01495621e+00  1.02554205e+00  1.03537480e+00  1.06004835e+00