Generated by Psi4
     FORCE                           RHF                       TESTBAS
Number of atoms                            I               29
Charge                                     I                0
Multiplicity                               I                1
Number of electrons                        I              102
Number of alpha electrons                  I               51
Number of beta electrons                   I               51
Number of basis functions                  I              296
Number of independent functions            I              296
Atomic numbers                             I   N=          29
           6           6           6           6           6           6
           1           1           8           6           6           1
           6           6           1           1           6           1
           1           1           7           1           1           1
           6           1           1           1           1
Nuclear charges                            R   N=          29
  6.00000000e+00  6.00000000e+00  6.00000000e+00  6.00000000e+00  6.00000000e+00
  6.00000000e+00  1.00000000e+00  1.00000000e+00  8.00000000e+00  6.00000000e+00
  6.00000000e+00  1.00000000e+00  6.00000000e+00  6.00000000e+00  1.00000000e+00
  1.00000000e+00  6.00000000e+00  1.00000000e+00  1.00000000e+00  1.00000000e+00
  7.00000000e+00  1.00000000e+00  1.00000000e+00  1.00000000e+00  6.00000000e+00
  1.00000000e+00  1.00000000e+00  1.00000000e+00  1.00000000e+00
Current cartesian coordinates              R   N=          87
 -4.08188953e-01  9.04459795e-01  4.97406335e-01  2.12009797e+00  1.15465557e+00
  1.34218823e+00  4.17839718e+00  9.51154516e-01 -2.83004143e-01  3.72260948e+00
  4.85409996e-01 -2.85638263e+00  1.20110239e+00  2.50790330e-01 -3.66329582e+00
 -8.75759218e-01  4.47639001e-01 -2.06529116e+00  6.09376233e+00  1.16160265e+00
  4.28861553e-01 -2.78758360e+00  2.59965195e-01 -2.78908249e+00  1.11573771e+00
 -1.85367883e-01 -6.21774286e+00  3.58607799e+00 -2.23805542e-01 -7.02642701e+00
  5.23967033e+00  1.65178005e-01 -5.10420863e+00  2.45801699e+00  1.53446349e+00
  3.33421897e+00 -2.56869719e+00  1.12194901e+00  2.36268450e+00 -2.89367440e+00
 -1.20146302e+00  4.11897973e+00 -4.35970323e+00  1.41674998e+00  1.36214915e+00
 -2.26946482e+00  2.80138383e+00  3.54056272e+00 -3.73484053e+00 -3.54499544e+00
  2.64703895e+00 -5.60284215e+00 -3.23571789e+00  1.80133049e+00 -3.85448655e+00
 -5.20022241e+00  3.89246586e+00 -2.39806466e+00 -3.99316652e+00  1.13432814e+00
 -4.77950277e+00 -6.30555686e-01  6.07656420e+00 -1.03379436e+00 -1.61055808e+00
  4.98957580e+00  3.83442213e+00 -5.52174886e-01 -9.02548447e+00  7.27748381e+00
  2.20019915e-01 -5.25727803e+00 -3.87332488e+00  9.24508430e-01  8.17050852e+00
 -5.47597026e+00 -2.28070498e+00  6.77574647e+00 -3.49393781e+00  2.85442687e+00
  7.52632299e+00 -2.12902427e+00  1.95225468e-01  9.06465901e+00 -5.34946903e+00
  1.03976959e+00  9.61616096e+00
Integer atomic weights                     I   N=          29
          12          12          12          12          12          12
           1           1          15          12          12           1
          12          12           1           1          12           1
           1           1          14           1           1           1
          12           1           1           1           1
Real atomic weights                        R   N=          29
  1.20000000e+01  1.20000000e+01  1.20000000e+01  1.20000000e+01  1.20000000e+01
  1.20000000e+01  1.00782503e+00  1.00782503e+00  1.59949146e+01  1.20000000e+01
  1.20000000e+01  1.00782503e+00  1.20000000e+01  1.20000000e+01  1.00782503e+00
  1.00782503e+00  1.20000000e+01  1.00782503e+00  1.00782503e+00  1.00782503e+00
  1.40030740e+01  1.00782503e+00  1.00782503e+00  1.00782503e+00  1.20000000e+01
  1.00782503e+00  1.00782503e+00  1.00782503e+00  1.00782503e+00
Number of primitive shells                 I              298
Number of contracted shells                I              142
Pure/Cartesian d shells                    I                1
Pure/Cartesian f shells                    I                1
Highest angular momentum                   I                2
Largest degree of contraction              I                6
Shell types                                I   N=         142
           0           0           1           0           1           2
           0           1           0           0           1           0
           1           2           0           1           0           0
           1           0           1           2           0           1
           0           0           1           0           1           2
           0           1           0           0           1           0
           1           2           0           1           0           0
           1           0           1           2           0           1
           0           0           0           0           0           0
           1           0           1           2           0           1
           0           0           1           0           1           2
           0           1           0           0           1           0
           1           2           0           1           0           0
           0           0           1           0           1           2
           0           1           0           0           1           0
           1           2           0           1           0           0
           0           0           0           0           1           0
           1           2           0           1           0           0
           0           0           0           0           0           0
           1           0           1           2           0           1
           0           0           0           0           0           0
           0           0           1           0           1           2
           0           1           0           0           0           0
           0           0           0           0
Number of primitives per shell             I   N=         142
           6           3           3           1           1           1
           1           1           6           3           3           1
           1           1           1           1           6           3
           3           1           1           1           1           1
           6           3           3           1           1           1
           1           1           6           3           3           1
           1           1           1           1           6           3
           3           1           1           1           1           1
           3           1           3           1           6           3
           3           1           1           1           1           1
           6           3           3           1           1           1
           1           1           6           3           3           1
           1           1           1           1           3           1
           6           3           3           1           1           1
           1           1           6           3           3           1
           1           1           1           1           3           1
           3           1           6           3           3           1
           1           1           1           1           3           1
           3           1           3           1           6           3
           3           1           1           1           1           1
           3           1           3           1           3           1
           6           3           3           1           1           1
           1           1           3           1           3           1
           3           1           3           1
Shell to atom map                          I   N=         142
           1           1           1           1           1           1
           1           1           2           2           2           2
           2           2           2           2           3           3
           3           3           3           3           3           3
           4           4           4           4           4           4
           4           4           5           5           5           5
           5           5           5           5           6           6
           6           6           6           6           6           6
           7           7           8           8           9           9
           9           9           9           9           9           9
          10          10          10          10          10          10
          10          10          11          11          11          11
          11          11          11          11          12          12
          13          13          13          13          13          13
          13          13          14          14          14          14
          14          14          14          14          15          15
          16          16          17          17          17          17
          17          17          17          17          18          18
          19          19          20          20          21          21
          21          21          21          21          21          21
          22          22          23          23          24          24
          25          25          25          25          25          25
          25          25          26          26          27          27
          28          28          29          29
Primitive exponents                        R   N=         298
  3.04752490e+03  4.57369510e+02  1.03948690e+02  2.92101550e+01  9.28666300e+00
  3.16392700e+00  7.86827240e+00  1.88128850e+00  5.44249300e-01  7.86827240e+00
  1.88128850e+00  5.44249300e-01  1.68714400e-01  1.68714400e-01  8.00000000e-01
  4.38000000e-02  4.38000000e-02  3.04752490e+03  4.57369510e+02  1.03948690e+02
  2.92101550e+01  9.28666300e+00  3.16392700e+00  7.86827240e+00  1.88128850e+00
  5.44249300e-01  7.86827240e+00  1.88128850e+00  5.44249300e-01  1.68714400e-01
  1.68714400e-01  8.00000000e-01  4.38000000e-02  4.38000000e-02  3.04752490e+03
  4.57369510e+02  1.03948690e+02  2.92101550e+01  9.28666300e+00  3.16392700e+00
  7.86827240e+00  1.88128850e+00  5.44249300e-01  7.86827240e+00  1.88128850e+00
  5.44249300e-01  1.68714400e-01  1.68714400e-01  8.00000000e-01  4.38000000e-02
  4.38000000e-02  3.04752490e+03  4.57369510e+02  1.03948690e+02  2.92101550e+01
  9.28666300e+00  3.16392700e+00  7.86827240e+00  1.88128850e+00  5.44249300e-01
  7.86827240e+00  1.88128850e+00  5.44249300e-01  1.68714400e-01  1.68714400e-01
  8.00000000e-01  4.38000000e-02  4.38000000e-02  3.04752490e+03  4.57369510e+02
  1.03948690e+02  2.92101550e+01  9.28666300e+00  3.16392700e+00  7.86827240e+00
  1.88128850e+00  5.44249300e-01  7.86827240e+00  1.88128850e+00  5.44249300e-01
  1.68714400e-01  1.68714400e-01  8.00000000e-01  4.38000000e-02  4.38000000e-02
  3.04752490e+03  4.57369510e+02  1.03948690e+02  2.92101550e+01  9.28666300e+00
  3.16392700e+00  7.86827240e+00  1.88128850e+00  5.44249300e-01  7.86827240e+00
  1.88128850e+00  5.44249300e-01  1.68714400e-01  1.68714400e-01  8.00000000e-01
  4.38000000e-02  4.38000000e-02  1.87311370e+01  2.82539370e+00  6.40121700e-01
  1.61277800e-01  1.87311370e+01  2.82539370e+00  6.40121700e-01  1.61277800e-01
  5.48467170e+03  8.25234950e+02  1.88046960e+02  5.29645000e+01  1.68975700e+01
  5.79963530e+00  1.55396160e+01  3.59993360e+00  1.01376180e+00  1.55396160e+01
  3.59993360e+00  1.01376180e+00  2.70005800e-01  2.70005800e-01  8.00000000e-01
  8.45000000e-02  8.45000000e-02  3.04752490e+03  4.57369510e+02  1.03948690e+02
  2.92101550e+01  9.28666300e+00  3.16392700e+00  7.86827240e+00  1.88128850e+00
  5.44249300e-01  7.86827240e+00  1.88128850e+00  5.44249300e-01  1.68714400e-01
  1.68714400e-01  8.00000000e-01  4.38000000e-02  4.38000000e-02  3.04752490e+03
  4.57369510e+02  1.03948690e+02  2.92101550e+01  9.28666300e+00  3.16392700e+00
  7.86827240e+00  1.88128850e+00  5.44249300e-01  7.86827240e+00  1.88128850e+00
  5.44249300e-01  1.68714400e-01  1.68714400e-01  8.00000000e-01  4.38000000e-02
  4.38000000e-02  1.87311370e+01  2.82539370e+00  6.40121700e-01  1.61277800e-01
  3.04752490e+03  4.57369510e+02  1.03948690e+02  2.92101550e+01  9.28666300e+00
  3.16392700e+00  7.86827240e+00  1.88128850e+00  5.44249300e-01  7.86827240e+00
  1.88128850e+00  5.44249300e-01  1.68714400e-01  1.68714400e-01  8.00000000e-01
  4.38000000e-02  4.38000000e-02  3.04752490e+03  4.57369510e+02  1.03948690e+02
  2.92101550e+01  9.28666300e+00  3.16392700e+00  7.86827240e+00  1.88128850e+00
  5.44249300e-01  7.86827240e+00  1.88128850e+00  5.44249300e-01  1.68714400e-01
  1.68714400e-01  8.00000000e-01  4.38000000e-02  4.38000000e-02  1.87311370e+01
  2.82539370e+00  6.40121700e-01  1.61277800e-01  1.87311370e+01  2.82539370e+00
  6.40121700e-01  1.61277800e-01  3.04752490e+03  4.57369510e+02  1.03948690e+02
  2.92101550e+01  9.28666300e+00  3.16392700e+00  7.86827240e+00  1.88128850e+00
  5.44249300e-01  7.86827240e+00  1.88128850e+00  5.44249300e-01  1.68714400e-01
  1.68714400e-01  8.00000000e-01  4.38000000e-02  4.38000000e-02  1.87311370e+01
  2.82539370e+00  6.40121700e-01  1.61277800e-01  1.87311370e+01  2.82539370e+00
  6.40121700e-01  1.61277800e-01  1.87311370e+01  2.82539370e+00  6.40121700e-01
  1.61277800e-01  4.17351100e+03  6.27457900e+02  1.42902100e+02  4.02343300e+01
  1.28202100e+01  4.39043700e+00  1.16263580e+01  2.71628000e+00  7.72218000e-01
  1.16263580e+01  2.71628000e+00  7.72218000e-01  2.12031300e-01  2.12031300e-01
  8.00000000e-01  6.39000000e-02  6.39000000e-02  1.87311370e+01  2.82539370e+00
  6.40121700e-01  1.61277800e-01  1.87311370e+01  2.82539370e+00  6.40121700e-01
  1.61277800e-01  1.87311370e+01  2.82539370e+00  6.40121700e-01  1.61277800e-01
  3.04752490e+03  4.57369510e+02  1.03948690e+02  2.92101550e+01  9.28666300e+00
  3.16392700e+00  7.86827240e+00  1.88128850e+00  5.44249300e-01  7.86827240e+00
  1.88128850e+00  5.44249300e-01  1.68714400e-01  1.68714400e-01  8.00000000e-01
  4.38000000e-02  4.38000000e-02  1.87311370e+01  2.82539370e+00  6.40121700e-01
  1.61277800e-01  1.87311370e+01  2.82539370e+00  6.40121700e-01  1.61277800e-01
  1.87311370e+01  2.82539370e+00  6.40121700e-01  1.61277800e-01  1.87311370e+01
  2.82539370e+00  6.40121700e-01  1.61277800e-01
Contraction coefficients                   R   N=         298
  1.83470016e-03  1.40373012e-02  6.88426061e-02  2.32184421e-01  4.67941342e-01
  3.62312032e-01 -1.19332409e-01 -1.60854212e-01  1.14345648e+00  6.89990956e-02
  3.16423980e-01  7.44308252e-01  1.00000000e+00  1.00000000e+00  1.00000000e+00
  1.00000000e+00  1.00000000e+00  1.83470016e-03  1.40373012e-02  6.88426061e-02
  2.32184421e-01  4.67941342e-01  3.62312032e-01 -1.19332409e-01 -1.60854212e-01
  1.14345648e+00  6.89990956e-02  3.16423980e-01  7.44308252e-01  1.00000000e+00
  1.00000000e+00  1.00000000e+00  1.00000000e+00  1.00000000e+00  1.83470016e-03
  1.40373012e-02  6.88426061e-02  2.32184421e-01  4.67941342e-01  3.62312032e-01
 -1.19332409e-01 -1.60854212e-01  1.14345648e+00  6.89990956e-02  3.16423980e-01
  7.44308252e-01  1.00000000e+00  1.00000000e+00  1.00000000e+00  1.00000000e+00
  1.00000000e+00  1.83470016e-03  1.40373012e-02  6.88426061e-02  2.32184421e-01
  4.67941342e-01  3.62312032e-01 -1.19332409e-01 -1.60854212e-01  1.14345648e+00
  6.89990956e-02  3.16423980e-01  7.44308252e-01  1.00000000e+00  1.00000000e+00
  1.00000000e+00  1.00000000e+00  1.00000000e+00  1.83470016e-03  1.40373012e-02
  6.88426061e-02  2.32184421e-01  4.67941342e-01  3.62312032e-01 -1.19332409e-01
 -1.60854212e-01  1.14345648e+00  6.89990956e-02  3.16423980e-01  7.44308252e-01
  1.00000000e+00  1.00000000e+00  1.00000000e+00  1.00000000e+00  1.00000000e+00
  1.83470016e-03  1.40373012e-02  6.88426061e-02  2.32184421e-01  4.67941342e-01
  3.62312032e-01 -1.19332409e-01 -1.60854212e-01  1.14345648e+00  6.89990956e-02
  3.16423980e-01  7.44308252e-01  1.00000000e+00  1.00000000e+00  1.00000000e+00
  1.00000000e+00  1.00000000e+00  3.34945995e-02  2.34726947e-01  8.13757318e-01
  1.00000000e+00  3.34945995e-02  2.34726947e-01  8.13757318e-01  1.00000000e+00
  1.83109981e-03  1.39500985e-02  6.84450927e-02  2.32714275e-01  4.70192950e-01
  3.58520862e-01 -1.10777504e-01 -1.48026305e-01  1.13076704e+00  7.08742995e-02
  3.39752798e-01  7.27158595e-01  1.00000000e+00  1.00000000e+00  1.00000000e+00
  1.00000000e+00  1.00000000e+00  1.83470016e-03  1.40373012e-02  6.88426061e-02
  2.32184421e-01  4.67941342e-01  3.62312032e-01 -1.19332409e-01 -1.60854212e-01
  1.14345648e+00  6.89990956e-02  3.16423980e-01  7.44308252e-01  1.00000000e+00
  1.00000000e+00  1.00000000e+00  1.00000000e+00  1.00000000e+00  1.83470016e-03
  1.40373012e-02  6.88426061e-02  2.32184421e-01  4.67941342e-01  3.62312032e-01
 -1.19332409e-01 -1.60854212e-01  1.14345648e+00  6.89990956e-02  3.16423980e-01
  7.44308252e-01  1.00000000e+00  1.00000000e+00  1.00000000e+00  1.00000000e+00
  1.00000000e+00  3.34945995e-02  2.34726947e-01  8.13757318e-01  1.00000000e+00
  1.83470016e-03  1.40373012e-02  6.88426061e-02  2.32184421e-01  4.67941342e-01
  3.62312032e-01 -1.19332409e-01 -1.60854212e-01  1.14345648e+00  6.89990956e-02
  3.16423980e-01  7.44308252e-01  1.00000000e+00  1.00000000e+00  1.00000000e+00
  1.00000000e+00  1.00000000e+00  1.83470016e-03  1.40373012e-02  6.88426061e-02
  2.32184421e-01  4.67941342e-01  3.62312032e-01 -1.19332409e-01 -1.60854212e-01
  1.14345648e+00  6.89990956e-02  3.16423980e-01  7.44308252e-01  1.00000000e+00
  1.00000000e+00  1.00000000e+00  1.00000000e+00  1.00000000e+00  3.34945995e-02
  2.34726947e-01  8.13757318e-01  1.00000000e+00  3.34945995e-02  2.34726947e-01
  8.13757318e-01  1.00000000e+00  1.83470016e-03  1.40373012e-02  6.88426061e-02
  2.32184421e-01  4.67941342e-01  3.62312032e-01 -1.19332409e-01 -1.60854212e-01
  1.14345648e+00  6.89990956e-02  3.16423980e-01  7.44308252e-01  1.00000000e+00
  1.00000000e+00  1.00000000e+00  1.00000000e+00  1.00000000e+00  3.34945995e-02
  2.34726947e-01  8.13757318e-01  1.00000000e+00  3.34945995e-02  2.34726947e-01
  8.13757318e-01  1.00000000e+00  3.34945995e-02  2.34726947e-01  8.13757318e-01
  1.00000000e+00  1.83479944e-03  1.39949958e-02  6.85869792e-02  2.32240930e-01
  4.69069858e-01  3.60454891e-01 -1.14961023e-01 -1.69118034e-01  1.14585223e+00
  6.75800232e-02  3.23907111e-01  7.40895255e-01  1.00000000e+00  1.00000000e+00
  1.00000000e+00  1.00000000e+00  1.00000000e+00  3.34945995e-02  2.34726947e-01
  8.13757318e-01  1.00000000e+00  3.34945995e-02  2.34726947e-01  8.13757318e-01
  1.00000000e+00  3.34945995e-02  2.34726947e-01  8.13757318e-01  1.00000000e+00
  1.83470016e-03  1.40373012e-02  6.88426061e-02  2.32184421e-01  4.67941342e-01
  3.62312032e-01 -1.19332409e-01 -1.60854212e-01  1.14345648e+00  6.89990956e-02
  3.16423980e-01  7.44308252e-01  1.00000000e+00  1.00000000e+00  1.00000000e+00
  1.00000000e+00  1.00000000e+00  3.34945995e-02  2.34726947e-01  8.13757318e-01
  1.00000000e+00  3.34945995e-02  2.34726947e-01  8.13757318e-01  1.00000000e+00
  3.34945995e-02  2.34726947e-01  8.13757318e-01  1.00000000e+00  3.34945995e-02
  2.34726947e-01  8.13757318e-01  1.00000000e+00
Coordinates of each shell                  R   N=         426
 -4.08188953e-01  9.04459795e-01  4.97406335e-01 -4.08188953e-01  9.04459795e-01
  4.97406335e-01 -4.08188953e-01  9.04459795e-01  4.97406335e-01 -4.08188953e-01
  9.04459795e-01  4.97406335e-01 -4.08188953e-01  9.04459795e-01  4.97406335e-01
 -4.08188953e-01  9.04459795e-01  4.97406335e-01 -4.08188953e-01  9.04459795e-01
  4.97406335e-01 -4.08188953e-01  9.04459795e-01  4.97406335e-01  2.12009797e+00
  1.15465557e+00  1.34218823e+00  2.12009797e+00  1.15465557e+00  1.34218823e+00
  2.12009797e+00  1.15465557e+00  1.34218823e+00  2.12009797e+00  1.15465557e+00
  1.34218823e+00  2.12009797e+00  1.15465557e+00  1.34218823e+00  2.12009797e+00
  1.15465557e+00  1.34218823e+00  2.12009797e+00  1.15465557e+00  1.34218823e+00
  2.12009797e+00  1.15465557e+00  1.34218823e+00  4.17839718e+00  9.51154516e-01
 -2.83004143e-01  4.17839718e+00  9.51154516e-01 -2.83004143e-01  4.17839718e+00
  9.51154516e-01 -2.83004143e-01  4.17839718e+00  9.51154516e-01 -2.83004143e-01
  4.17839718e+00  9.51154516e-01 -2.83004143e-01  4.17839718e+00  9.51154516e-01
 -2.83004143e-01  4.17839718e+00  9.51154516e-01 -2.83004143e-01  4.17839718e+00
  9.51154516e-01 -2.83004143e-01  3.72260948e+00  4.85409996e-01 -2.85638263e+00
  3.72260948e+00  4.85409996e-01 -2.85638263e+00  3.72260948e+00  4.85409996e-01
 -2.85638263e+00  3.72260948e+00  4.85409996e-01 -2.85638263e+00  3.72260948e+00
  4.85409996e-01 -2.85638263e+00  3.72260948e+00  4.85409996e-01 -2.85638263e+00
  3.72260948e+00  4.85409996e-01 -2.85638263e+00  3.72260948e+00  4.85409996e-01
 -2.85638263e+00  1.20110239e+00  2.50790330e-01 -3.66329582e+00  1.20110239e+00
  2.50790330e-01 -3.66329582e+00  1.20110239e+00  2.50790330e-01 -3.66329582e+00
  1.20110239e+00  2.50790330e-01 -3.66329582e+00  1.20110239e+00  2.50790330e-01
 -3.66329582e+00  1.20110239e+00  2.50790330e-01 -3.66329582e+00  1.20110239e+00
  2.50790330e-01 -3.66329582e+00  1.20110239e+00  2.50790330e-01 -3.66329582e+00
 -8.75759218e-01  4.47639001e-01 -2.06529116e+00 -8.75759218e-01  4.47639001e-01
 -2.06529116e+00 -8.75759218e-01  4.47639001e-01 -2.06529116e+00 -8.75759218e-01
  4.47639001e-01 -2.06529116e+00 -8.75759218e-01  4.47639001e-01 -2.06529116e+00
 -8.75759218e-01  4.47639001e-01 -2.06529116e+00 -8.75759218e-01  4.47639001e-01
 -2.06529116e+00 -8.75759218e-01  4.47639001e-01 -2.06529116e+00  6.09376233e+00
  1.16160265e+00  4.28861553e-01  6.09376233e+00  1.16160265e+00  4.28861553e-01
 -2.78758360e+00  2.59965195e-01 -2.78908249e+00 -2.78758360e+00  2.59965195e-01
 -2.78908249e+00  1.11573771e+00 -1.85367883e-01 -6.21774286e+00  1.11573771e+00
 -1.85367883e-01 -6.21774286e+00  1.11573771e+00 -1.85367883e-01 -6.21774286e+00
  1.11573771e+00 -1.85367883e-01 -6.21774286e+00  1.11573771e+00 -1.85367883e-01
 -6.21774286e+00  1.11573771e+00 -1.85367883e-01 -6.21774286e+00  1.11573771e+00
 -1.85367883e-01 -6.21774286e+00  1.11573771e+00 -1.85367883e-01 -6.21774286e+00
  3.58607799e+00 -2.23805542e-01 -7.02642701e+00  3.58607799e+00 -2.23805542e-01
 -7.02642701e+00  3.58607799e+00 -2.23805542e-01 -7.02642701e+00  3.58607799e+00
 -2.23805542e-01 -7.02642701e+00  3.58607799e+00 -2.23805542e-01 -7.02642701e+00
  3.58607799e+00 -2.23805542e-01 -7.02642701e+00  3.58607799e+00 -2.23805542e-01
 -7.02642701e+00  3.58607799e+00 -2.23805542e-01 -7.02642701e+00  5.23967033e+00
  1.65178005e-01 -5.10420863e+00  5.23967033e+00  1.65178005e-01 -5.10420863e+00
  5.23967033e+00  1.65178005e-01 -5.10420863e+00  5.23967033e+00  1.65178005e-01
 -5.10420863e+00  5.23967033e+00  1.65178005e-01 -5.10420863e+00  5.23967033e+00
  1.65178005e-01 -5.10420863e+00  5.23967033e+00  1.65178005e-01 -5.10420863e+00
  5.23967033e+00  1.65178005e-01 -5.10420863e+00  2.45801699e+00  1.53446349e+00
  3.33421897e+00  2.45801699e+00  1.53446349e+00  3.33421897e+00 -2.56869719e+00
  1.12194901e+00  2.36268450e+00 -2.56869719e+00  1.12194901e+00  2.36268450e+00
 -2.56869719e+00  1.12194901e+00  2.36268450e+00 -2.56869719e+00  1.12194901e+00
  2.36268450e+00 -2.56869719e+00  1.12194901e+00  2.36268450e+00 -2.56869719e+00
  1.12194901e+00  2.36268450e+00 -2.56869719e+00  1.12194901e+00  2.36268450e+00
 -2.56869719e+00  1.12194901e+00  2.36268450e+00 -2.89367440e+00 -1.20146302e+00
  4.11897973e+00 -2.89367440e+00 -1.20146302e+00  4.11897973e+00 -2.89367440e+00
 -1.20146302e+00  4.11897973e+00 -2.89367440e+00 -1.20146302e+00  4.11897973e+00
 -2.89367440e+00 -1.20146302e+00  4.11897973e+00 -2.89367440e+00 -1.20146302e+00
  4.11897973e+00 -2.89367440e+00 -1.20146302e+00  4.11897973e+00 -2.89367440e+00
 -1.20146302e+00  4.11897973e+00 -4.35970323e+00  1.41674998e+00  1.36214915e+00
 -4.35970323e+00  1.41674998e+00  1.36214915e+00 -2.26946482e+00  2.80138383e+00
  3.54056272e+00 -2.26946482e+00  2.80138383e+00  3.54056272e+00 -3.73484053e+00
 -3.54499544e+00  2.64703895e+00 -3.73484053e+00 -3.54499544e+00  2.64703895e+00
 -3.73484053e+00 -3.54499544e+00  2.64703895e+00 -3.73484053e+00 -3.54499544e+00
  2.64703895e+00 -3.73484053e+00 -3.54499544e+00  2.64703895e+00 -3.73484053e+00
 -3.54499544e+00  2.64703895e+00 -3.73484053e+00 -3.54499544e+00  2.64703895e+00
 -3.73484053e+00 -3.54499544e+00  2.64703895e+00 -5.60284215e+00 -3.23571789e+00
  1.80133049e+00 -5.60284215e+00 -3.23571789e+00  1.80133049e+00 -3.85448655e+00
 -5.20022241e+00  3.89246586e+00 -3.85448655e+00 -5.20022241e+00  3.89246586e+00
 -2.39806466e+00 -3.99316652e+00  1.13432814e+00 -2.39806466e+00 -3.99316652e+00
  1.13432814e+00 -4.77950277e+00 -6.30555686e-01  6.07656420e+00 -4.77950277e+00
 -6.30555686e-01  6.07656420e+00 -4.77950277e+00 -6.30555686e-01  6.07656420e+00
 -4.77950277e+00 -6.30555686e-01  6.07656420e+00 -4.77950277e+00 -6.30555686e-01
  6.07656420e+00 -4.77950277e+00 -6.30555686e-01  6.07656420e+00 -4.77950277e+00
 -6.30555686e-01  6.07656420e+00 -4.77950277e+00 -6.30555686e-01  6.07656420e+00
 -1.03379436e+00 -1.61055808e+00  4.98957580e+00 -1.03379436e+00 -1.61055808e+00
  4.98957580e+00  3.83442213e+00 -5.52174886e-01 -9.02548447e+00  3.83442213e+00
 -5.52174886e-01 -9.02548447e+00  7.27748381e+00  2.20019915e-01 -5.25727803e+00
  7.27748381e+00  2.20019915e-01 -5.25727803e+00 -3.87332488e+00  9.24508430e-01
  8.17050852e+00 -3.87332488e+00  9.24508430e-01  8.17050852e+00 -3.87332488e+00
  9.24508430e-01  8.17050852e+00 -3.87332488e+00  9.24508430e-01  8.17050852e+00
 -3.87332488e+00  9.24508430e-01  8.17050852e+00 -3.87332488e+00  9.24508430e-01
  8.17050852e+00 -3.87332488e+00  9.24508430e-01  8.17050852e+00 -3.87332488e+00
  9.24508430e-01  8.17050852e+00 -5.47597026e+00 -2.28070498e+00  6.77574647e+00
 -5.47597026e+00 -2.28070498e+00  6.77574647e+00 -3.49393781e+00  2.85442687e+00
  7.52632299e+00 -3.49393781e+00  2.85442687e+00  7.52632299e+00 -2.12902427e+00
  1.95225468e-01  9.06465901e+00 -2.12902427e+00  1.95225468e-01  9.06465901e+00
 -5.34946903e+00  1.03976959e+00  9.61616096e+00 -5.34946903e+00  1.03976959e+00
  9.61616096e+00
Total Energy                               R     -5.962897600132113e+02
Alpha Orbital Energies                     R   N=         296
 -1.92209751e+01 -1.43259458e+01 -1.02525474e+01 -1.02481161e+01 -1.02200526e+01
 -1.02068848e+01 -1.02039660e+01 -1.02018666e+01 -1.02005480e+01 -1.01994960e+01
 -1.01979339e+01 -1.01929472e+01 -1.01874297e+01 -1.01788992e+01 -1.11312596e+00
 -9.08244960e-01 -8.63185513e-01 -8.10133503e-01 -7.78101607e-01 -7.51955919e-01
 -7.37990370e-01 -6.87847409e-01 -6.61786053e-01 -6.33483860e-01 -6.03766440e-01
 -5.94951545e-01 -5.61063321e-01 -5.27202395e-01 -4.98092603e-01 -4.92854150e-01
 -4.73430032e-01 -4.61031424e-01 -4.58172924e-01 -4.53870688e-01 -4.45005541e-01
 -4.34951395e-01 -4.16947807e-01 -4.06019611e-01 -3.90069351e-01 -3.86719115e-01
 -3.82777701e-01 -3.70925156e-01 -3.64436721e-01 -3.59030098e-01 -3.40945540e-01
 -3.38184215e-01 -3.32905010e-01 -2.95462861e-01 -2.43621857e-01 -2.30570247e-01
 -2.21565510e-01 -2.87388565e-02 -2.54349551e-03  4.32817236e-03  1.12197629e-02
  1.60356157e-02  1.86801729e-02  2.22041324e-02  2.95238693e-02  3.52399385e-02
  4.32085542e-02  4.42744045e-02  4.72074520e-02  5.13467126e-02  5.79728731e-02
  6.73074816e-02  7.03349169e-02  7.29007125e-02  8.11225486e-02  8.45785999e-02
  9.33612883e-02  9.54088590e-02  9.92956996e-02  1.01419196e-01  1.06583510e-01
  1.13320835e-01  1.19685687e-01  1.28239789e-01  1.40829798e-01  1.45093521e-01
  1.49057529e-01  1.53469998e-01  1.55364455e-01  1.55844231e-01  1.60759046e-01
  1.67221679e-01  1.69517184e-01  1.74518103e-01  1.77843452e-01  1.82796604e-01
  1.87142533e-01  1.91143921e-01  1.97916861e-01  2.02439019e-01  2.04667209e-01
  2.07803265e-01  2.11414609e-01  2.14925783e-01  2.20483294e-01  2.22713618e-01
  2.23723736e-01  2.27720065e-01  2.36193276e-01  2.38295074e-01  2.42082987e-01
  2.47544478e-01  2.50430211e-01  2.54198072e-01  2.59955733e-01  2.63561503e-01
  2.73689381e-01  2.80438187e-01  2.81265849e-01  2.88512971e-01  2.92665446e-01
  2.99928612e-01  3.03162204e-01  3.08942753e-01  3.12429055e-01  3.16320624e-01
  3.18857632e-01  3.23113765e-01  3.32027687e-01  3.35121841e-01  3.42024731e-01
  3.57177256e-01  3.64155371e-01  3.69871628e-01  3.72656433e-01  3.77795220e-01
  3.85166048e-01  3.89876460e-01  4.06939620e-01  4.12972720e-01  4.35156303e-01
  4.51347592e-01  4.62998298e-01  4.81081548e-01  5.10768359e-01  5.82842051e-01
  6.11451549e-01  6.44053625e-01  6.60898507e-01  6.68497423e-01  6.86826269e-01
  6.91253615e-01  6.95695398e-01  6.96375934e-01  7.04728904e-01  7.14064750e-01
  7.22484345e-01  7.30569508e-01  7.31690647e-01  7.43775870e-01  7.53662044e-01
  7.62890371e-01  7.81234491e-01  7.83033260e-01  7.93049665e-01  8.00442918e-01
  8.05656456e-01  8.18058027e-01  8.21265514e-01  8.38319912e-01  8.73301920e-01
  8.88859577e-01  8.94188318e-01  9.04715953e-01  9.15491321e-01  9.30378223e-01
  9.40531410e-01  9.43361538e-01  9.54535521e-01  9.61127253e-01  9.84720775e-01
  9.97250928e-01  1.01071502e+00  1.02218191e+00  1.03107027e+00  1.05452851e+00
  1.06568260e+00  1.08110493e+00  1.08691008e+00  1.09032749e+00  1.11068829e+00
  1.12453062e+00  1.14040324e+00  1.14565801e+00  1.16558561e+00  1.16605935e+00
  1.17654267e+00  1.18342976e+00  1.19665599e+00  1.20366506e+00  1.21915526e+00
  1.23899559e+00  1.25012784e+00  1.25455206e+00  1.26985153e+00  1.30096557e+00
  1.33216247e+00  1.34689665e+00  1.35849794e+00  1.36798156e+00  1.37790454e+00
  1.39763416e+00  1.41876094e+00  1.42306001e+00  1.42933669e+00  1.44806087e+00