Generated by Psi4
     FORCE                           RHF                       TESTBAS
Number of atoms                            I               32
Charge                                     I                0
Multiplicity                               I                1
Number of electrons                        I              110
Number of alpha electrons                  I               55
Number of beta electrons                   I               55
Number of basis functions                  I              319
Number of independent functions            I              319
Atomic numbers                             I   N=          32
           6           6           6           6           6           6
           1           1           8           6           6           1
           6           6           1           1           6           1
           1           1           7           1           6           1
           6           1           1           1           1           1
           1           1
Nuclear charges                            R   N=          32
  6.00000000e+00  6.00000000e+00  6.00000000e+00  6.00000000e+00  6.00000000e+00
  6.00000000e+00  1.00000000e+00  1.00000000e+00  8.00000000e+00  6.00000000e+00
  6.00000000e+00  1.00000000e+00  6.00000000e+00  6.00000000e+00  1.00000000e+00
  1.00000000e+00  6.00000000e+00  1.00000000e+00  1.00000000e+00  1.00000000e+00
  7.00000000e+00  1.00000000e+00  6.00000000e+00  1.00000000e+00  6.00000000e+00
  1.00000000e+00  1.00000000e+00  1.00000000e+00  1.00000000e+00  1.00000000e+00
  1.00000000e+00  1.00000000e+00
Current cartesian coordinates              R   N=          96
  1.83903383e-03  8.34694749e-01 -2.04789667e-01  2.54538913e+00  1.06407405e+00
  5.99287296e-01  4.57357857e+00  8.96984497e-01 -1.06733538e+00  4.07060255e+00
  4.90354638e-01 -3.64198912e+00  1.53463579e+00  2.75498584e-01 -4.40811124e+00
 -5.12610102e-01  4.36639984e-01 -2.76835891e+00  6.50179098e+00  1.09015953e+00
 -3.85902255e-01 -2.43747127e+00  2.66783361e-01 -3.46135967e+00  1.40249394e+00
 -1.00492296e-01 -6.97016528e+00  3.85789926e+00 -1.25547699e-01 -7.82365183e+00
  5.54631557e+00  2.20720145e-01 -5.92364115e+00  2.91978579e+00  1.39800720e+00
  2.59304645e+00 -2.12360816e+00  1.00895888e+00  1.70475241e+00 -2.41887173e+00
 -1.35686045e+00  3.41045910e+00 -3.93232166e+00  1.32907353e+00  7.44646406e-01
 -1.80219707e+00  2.65892256e+00  2.91776520e+00 -3.30299690e+00 -3.65797067e+00
  1.89635260e+00 -5.19294294e+00 -3.32381363e+00  1.11057426e+00 -3.39115460e+00
 -5.34756014e+00  3.09726636e+00 -2.00928375e+00 -4.06425192e+00  3.35132163e-01
 -4.25671326e+00 -8.29423870e-01  5.42645751e+00 -5.41993253e-01 -1.79767882e+00
  4.22530519e+00 -3.28274744e+00  5.96433507e-01  7.58860250e+00 -4.98473539e+00
 -2.49432833e+00  6.06368374e+00 -5.29746262e+00  8.72288842e-01  9.63879614e+00
 -2.71551074e+00  2.47951335e+00  6.93535238e+00 -1.56853609e+00 -2.91060602e-01
  8.40107946e+00 -6.97541929e+00  1.82712799e+00  8.89131614e+00 -4.56989483e+00
  1.97029774e+00  1.12377171e+01 -5.88507179e+00 -9.80133256e-01  1.03672195e+01
  7.58108269e+00  2.77869592e-01 -6.11235388e+00  4.06972830e+00 -4.09965753e-01
 -9.83361824e+00
Integer atomic weights                     I   N=          32
          12          12          12          12          12          12
           1           1          15          12          12           1
          12          12           1           1          12           1
           1           1          14           1          12           1
          12           1           1           1           1           1
           1           1
Real atomic weights                        R   N=          32
  1.20000000e+01  1.20000000e+01  1.20000000e+01  1.20000000e+01  1.20000000e+01
  1.20000000e+01  1.00782503e+00  1.00782503e+00  1.59949146e+01  1.20000000e+01
  1.20000000e+01  1.00782503e+00  1.20000000e+01  1.20000000e+01  1.00782503e+00
  1.00782503e+00  1.20000000e+01  1.00782503e+00  1.00782503e+00  1.00782503e+00
  1.40030740e+01  1.00782503e+00  1.20000000e+01  1.00782503e+00  1.20000000e+01
  1.00782503e+00  1.00782503e+00  1.00782503e+00  1.00782503e+00  1.00782503e+00
  1.00782503e+00  1.00782503e+00
Number of primitive shells                 I              323
Number of contracted shells                I              154
Pure/Cartesian d shells                    I                1
Pure/Cartesian f shells                    I                1
Highest angular momentum                   I                2
Largest degree of contraction              I                6
Shell types                                I   N=         154
           0           0           1           0           1           2
           0           1           0           0           1           0
           1           2           0           1           0           0
           1           0           1           2           0           1
           0           0           1           0           1           2
           0           1           0           0           1           0
           1           2           0           1           0           0
           1           0           1           2           0           1
           0           0           0           0           0           0
           1           0           1           2           0           1
           0           0           1           0           1           2
           0           1           0           0           1           0
           1           2           0           1           0           0
           0           0           1           0           1           2
           0           1           0           0           1           0
           1           2           0           1           0           0
           0           0           0           0           1           0
           1           2           0           1           0           0
           0           0           0           0           0           0
           1           0           1           2           0           1
           0           0           0           0           1           0
           1           2           0           1           0           0
           0           0           1           0           1           2
           0           1           0           0           0           0
           0           0           0           0           0           0
           0           0           0           0
Number of primitives per shell             I   N=         154
           6           3           3           1           1           1
           1           1           6           3           3           1
           1           1           1           1           6           3
           3           1           1           1           1           1
           6           3           3           1           1           1
           1           1           6           3           3           1
           1           1           1           1           6           3
           3           1           1           1           1           1
           3           1           3           1           6           3
           3           1           1           1           1           1
           6           3           3           1           1           1
           1           1           6           3           3           1
           1           1           1           1           3           1
           6           3           3           1           1           1
           1           1           6           3           3           1
           1           1           1           1           3           1
           3           1           6           3           3           1
           1           1           1           1           3           1
           3           1           3           1           6           3
           3           1           1           1           1           1
           3           1           6           3           3           1
           1           1           1           1           3           1
           6           3           3           1           1           1
           1           1           3           1           3           1
           3           1           3           1           3           1
           3           1           3           1
Shell to atom map                          I   N=         154
           1           1           1           1           1           1
           1           1           2           2           2           2
           2           2           2           2           3           3
           3           3           3           3           3           3
           4           4           4           4           4           4
           4           4           5           5           5           5
           5           5           5           5           6           6
           6           6           6           6           6           6
           7           7           8           8           9           9
           9           9           9           9           9           9
          10          10          10          10          10          10
          10          10          11          11          11          11
          11          11          11          11          12          12
          13          13          13          13          13          13
          13          13          14          14          14          14
          14          14          14          14          15          15
          16          16          17          17          17          17
          17          17          17          17          18          18
          19          19          20          20          21          21
          21          21          21          21          21          21
          22          22          23          23          23          23
          23          23          23          23          24          24
          25          25          25          25          25          25
          25          25          26          26          27          27
          28          28          29          29          30          30
          31          31          32          32
Primitive exponents                        R   N=         323
  3.04752490e+03  4.57369510e+02  1.03948690e+02  2.92101550e+01  9.28666300e+00
  3.16392700e+00  7.86827240e+00  1.88128850e+00  5.44249300e-01  7.86827240e+00
  1.88128850e+00  5.44249300e-01  1.68714400e-01  1.68714400e-01  8.00000000e-01
  4.38000000e-02  4.38000000e-02  3.04752490e+03  4.57369510e+02  1.03948690e+02
  2.92101550e+01  9.28666300e+00  3.16392700e+00  7.86827240e+00  1.88128850e+00
  5.44249300e-01  7.86827240e+00  1.88128850e+00  5.44249300e-01  1.68714400e-01
  1.68714400e-01  8.00000000e-01  4.38000000e-02  4.38000000e-02  3.04752490e+03
  4.57369510e+02  1.03948690e+02  2.92101550e+01  9.28666300e+00  3.16392700e+00
  7.86827240e+00  1.88128850e+00  5.44249300e-01  7.86827240e+00  1.88128850e+00
  5.44249300e-01  1.68714400e-01  1.68714400e-01  8.00000000e-01  4.38000000e-02
  4.38000000e-02  3.04752490e+03  4.57369510e+02  1.03948690e+02  2.92101550e+01
  9.28666300e+00  3.16392700e+00  7.86827240e+00  1.88128850e+00  5.44249300e-01
  7.86827240e+00  1.88128850e+00  5.44249300e-01  1.68714400e-01  1.68714400e-01
  8.00000000e-01  4.38000000e-02  4.38000000e-02  3.04752490e+03  4.57369510e+02
  1.03948690e+02  2.92101550e+01  9.28666300e+00  3.16392700e+00  7.86827240e+00
  1.88128850e+00  5.44249300e-01  7.86827240e+00  1.88128850e+00  5.44249300e-01
  1.68714400e-01  1.68714400e-01  8.00000000e-01  4.38000000e-02  4.38000000e-02
  3.04752490e+03  4.57369510e+02  1.03948690e+02  2.92101550e+01  9.28666300e+00
  3.16392700e+00  7.86827240e+00  1.88128850e+00  5.44249300e-01  7.86827240e+00
  1.88128850e+00  5.44249300e-01  1.68714400e-01  1.68714400e-01  8.00000000e-01
  4.38000000e-02  4.38000000e-02  1.87311370e+01  2.82539370e+00  6.40121700e-01
  1.61277800e-01  1.87311370e+01  2.82539370e+00  6.40121700e-01  1.61277800e-01
  5.48467170e+03  8.25234950e+02  1.88046960e+02  5.29645000e+01  1.68975700e+01
  5.79963530e+00  1.55396160e+01  3.59993360e+00  1.01376180e+00  1.55396160e+01
  3.59993360e+00  1.01376180e+00  2.70005800e-01  2.70005800e-01  8.00000000e-01
  8.45000000e-02  8.45000000e-02  3.04752490e+03  4.57369510e+02  1.03948690e+02
  2.92101550e+01  9.28666300e+00  3.16392700e+00  7.86827240e+00  1.88128850e+00
  5.44249300e-01  7.86827240e+00  1.88128850e+00  5.44249300e-01  1.68714400e-01
  1.68714400e-01  8.00000000e-01  4.38000000e-02  4.38000000e-02  3.04752490e+03
  4.57369510e+02  1.03948690e+02  2.92101550e+01  9.28666300e+00  3.16392700e+00
  7.86827240e+00  1.88128850e+00  5.44249300e-01  7.86827240e+00  1.88128850e+00
  5.44249300e-01  1.68714400e-01  1.68714400e-01  8.00000000e-01  4.38000000e-02
  4.38000000e-02  1.87311370e+01  2.82539370e+00  6.40121700e-01  1.61277800e-01
  3.04752490e+03  4.57369510e+02  1.03948690e+02  2.92101550e+01  9.28666300e+00
  3.16392700e+00  7.86827240e+00  1.88128850e+00  5.44249300e-01  7.86827240e+00
  1.88128850e+00  5.44249300e-01  1.68714400e-01  1.68714400e-01  8.00000000e-01
  4.38000000e-02  4.38000000e-02  3.04752490e+03  4.57369510e+02  1.03948690e+02
  2.92101550e+01  9.28666300e+00  3.16392700e+00  7.86827240e+00  1.88128850e+00
  5.44249300e-01  7.86827240e+00  1.88128850e+00  5.44249300e-01  1.68714400e-01
  1.68714400e-01  8.00000000e-01  4.38000000e-02  4.38000000e-02  1.87311370e+01
  2.82539370e+00  6.40121700e-01  1.61277800e-01  1.87311370e+01  2.82539370e+00
  6.40121700e-01  1.61277800e-01  3.04752490e+03  4.57369510e+02  1.03948690e+02
  2.92101550e+01  9.28666300e+00  3.16392700e+00  7.86827240e+00  1.88128850e+00
  5.44249300e-01  7.86827240e+00  1.88128850e+00  5.44249300e-01  1.68714400e-01
  1.68714400e-01  8.00000000e-01  4.38000000e-02  4.38000000e-02  1.87311370e+01
  2.82539370e+00  6.40121700e-01  1.61277800e-01  1.87311370e+01  2.82539370e+00
  6.40121700e-01  1.61277800e-01  1.87311370e+01  2.82539370e+00  6.40121700e-01
  1.61277800e-01  4.17351100e+03  6.27457900e+02  1.42902100e+02  4.02343300e+01
  1.28202100e+01  4.39043700e+00  1.16263580e+01  2.71628000e+00  7.72218000e-01
  1.16263580e+01  2.71628000e+00  7.72218000e-01  2.12031300e-01  2.12031300e-01
  8.00000000e-01  6.39000000e-02  6.39000000e-02  1.87311370e+01  2.82539370e+00
  6.40121700e-01  1.61277800e-01  3.04752490e+03  4.57369510e+02  1.03948690e+02
  2.92101550e+01  9.28666300e+00  3.16392700e+00  7.86827240e+00  1.88128850e+00
  5.44249300e-01  7.86827240e+00  1.88128850e+00  5.44249300e-01  1.68714400e-01
  1.68714400e-01  8.00000000e-01  4.38000000e-02  4.38000000e-02  1.87311370e+01
  2.82539370e+00  6.40121700e-01  1.61277800e-01  3.04752490e+03  4.57369510e+02
  1.03948690e+02  2.92101550e+01  9.28666300e+00  3.16392700e+00  7.86827240e+00
  1.88128850e+00  5.44249300e-01  7.86827240e+00  1.88128850e+00  5.44249300e-01
  1.68714400e-01  1.68714400e-01  8.00000000e-01  4.38000000e-02  4.38000000e-02
  1.87311370e+01  2.82539370e+00  6.40121700e-01  1.61277800e-01  1.87311370e+01
  2.82539370e+00  6.40121700e-01  1.61277800e-01  1.87311370e+01  2.82539370e+00
  6.40121700e-01  1.61277800e-01  1.87311370e+01  2.82539370e+00  6.40121700e-01
  1.61277800e-01  1.87311370e+01  2.82539370e+00  6.40121700e-01  1.61277800e-01
  1.87311370e+01  2.82539370e+00  6.40121700e-01  1.61277800e-01  1.87311370e+01
  2.82539370e+00  6.40121700e-01  1.61277800e-01
Contraction coefficients                   R   N=         323
  1.83470016e-03  1.40373012e-02  6.88426061e-02  2.32184421e-01  4.67941342e-01
  3.62312032e-01 -1.19332409e-01 -1.60854212e-01  1.14345648e+00  6.89990956e-02
  3.16423980e-01  7.44308252e-01  1.00000000e+00  1.00000000e+00  1.00000000e+00
  1.00000000e+00  1.00000000e+00  1.83470016e-03  1.40373012e-02  6.88426061e-02
  2.32184421e-01  4.67941342e-01  3.62312032e-01 -1.19332409e-01 -1.60854212e-01
  1.14345648e+00  6.89990956e-02  3.16423980e-01  7.44308252e-01  1.00000000e+00
  1.00000000e+00  1.00000000e+00  1.00000000e+00  1.00000000e+00  1.83470016e-03
  1.40373012e-02  6.88426061e-02  2.32184421e-01  4.67941342e-01  3.62312032e-01
 -1.19332409e-01 -1.60854212e-01  1.14345648e+00  6.89990956e-02  3.16423980e-01
  7.44308252e-01  1.00000000e+00  1.00000000e+00  1.00000000e+00  1.00000000e+00
  1.00000000e+00  1.83470016e-03  1.40373012e-02  6.88426061e-02  2.32184421e-01
  4.67941342e-01  3.62312032e-01 -1.19332409e-01 -1.60854212e-01  1.14345648e+00
  6.89990956e-02  3.16423980e-01  7.44308252e-01  1.00000000e+00  1.00000000e+00
  1.00000000e+00  1.00000000e+00  1.00000000e+00  1.83470016e-03  1.40373012e-02
  6.88426061e-02  2.32184421e-01  4.67941342e-01  3.62312032e-01 -1.19332409e-01
 -1.60854212e-01  1.14345648e+00  6.89990956e-02  3.16423980e-01  7.44308252e-01
  1.00000000e+00  1.00000000e+00  1.00000000e+00  1.00000000e+00  1.00000000e+00
  1.83470016e-03  1.40373012e-02  6.88426061e-02  2.32184421e-01  4.67941342e-01
  3.62312032e-01 -1.19332409e-01 -1.60854212e-01  1.14345648e+00  6.89990956e-02
  3.16423980e-01  7.44308252e-01  1.00000000e+00  1.00000000e+00  1.00000000e+00
  1.00000000e+00  1.00000000e+00  3.34945995e-02  2.34726947e-01  8.13757318e-01
  1.00000000e+00  3.34945995e-02  2.34726947e-01  8.13757318e-01  1.00000000e+00
  1.83109981e-03  1.39500985e-02  6.84450927e-02  2.32714275e-01  4.70192950e-01
  3.58520862e-01 -1.10777504e-01 -1.48026305e-01  1.13076704e+00  7.08742995e-02
  3.39752798e-01  7.27158595e-01  1.00000000e+00  1.00000000e+00  1.00000000e+00
  1.00000000e+00  1.00000000e+00  1.83470016e-03  1.40373012e-02  6.88426061e-02
  2.32184421e-01  4.67941342e-01  3.62312032e-01 -1.19332409e-01 -1.60854212e-01
  1.14345648e+00  6.89990956e-02  3.16423980e-01  7.44308252e-01  1.00000000e+00
  1.00000000e+00  1.00000000e+00  1.00000000e+00  1.00000000e+00  1.83470016e-03
  1.40373012e-02  6.88426061e-02  2.32184421e-01  4.67941342e-01  3.62312032e-01
 -1.19332409e-01 -1.60854212e-01  1.14345648e+00  6.89990956e-02  3.16423980e-01
  7.44308252e-01  1.00000000e+00  1.00000000e+00  1.00000000e+00  1.00000000e+00
  1.00000000e+00  3.34945995e-02  2.34726947e-01  8.13757318e-01  1.00000000e+00
  1.83470016e-03  1.40373012e-02  6.88426061e-02  2.32184421e-01  4.67941342e-01
  3.62312032e-01 -1.19332409e-01 -1.60854212e-01  1.14345648e+00  6.89990956e-02
  3.16423980e-01  7.44308252e-01  1.00000000e+00  1.00000000e+00  1.00000000e+00
  1.00000000e+00  1.00000000e+00  1.83470016e-03  1.40373012e-02  6.88426061e-02
  2.32184421e-01  4.67941342e-01  3.62312032e-01 -1.19332409e-01 -1.60854212e-01
  1.14345648e+00  6.89990956e-02  3.16423980e-01  7.44308252e-01  1.00000000e+00
  1.00000000e+00  1.00000000e+00  1.00000000e+00  1.00000000e+00  3.34945995e-02
  2.34726947e-01  8.13757318e-01  1.00000000e+00  3.34945995e-02  2.34726947e-01
  8.13757318e-01  1.00000000e+00  1.83470016e-03  1.40373012e-02  6.88426061e-02
  2.32184421e-01  4.67941342e-01  3.62312032e-01 -1.19332409e-01 -1.60854212e-01
  1.14345648e+00  6.89990956e-02  3.16423980e-01  7.44308252e-01  1.00000000e+00
  1.00000000e+00  1.00000000e+00  1.00000000e+00  1.00000000e+00  3.34945995e-02
  2.34726947e-01  8.13757318e-01  1.00000000e+00  3.34945995e-02  2.34726947e-01
  8.13757318e-01  1.00000000e+00  3.34945995e-02  2.34726947e-01  8.13757318e-01
  1.00000000e+00  1.83479944e-03  1.39949958e-02  6.85869792e-02  2.32240930e-01
  4.69069858e-01  3.60454891e-01 -1.14961023e-01 -1.69118034e-01  1.14585223e+00
  6.75800232e-02  3.23907111e-01  7.40895255e-01  1.00000000e+00  1.00000000e+00
  1.00000000e+00  1.00000000e+00  1.00000000e+00  3.34945995e-02  2.34726947e-01
  8.13757318e-01  1.00000000e+00  1.83470016e-03  1.40373012e-02  6.88426061e-02
  2.32184421e-01  4.67941342e-01  3.62312032e-01 -1.19332409e-01 -1.60854212e-01
  1.14345648e+00  6.89990956e-02  3.16423980e-01  7.44308252e-01  1.00000000e+00
  1.00000000e+00  1.00000000e+00  1.00000000e+00  1.00000000e+00  3.34945995e-02
  2.34726947e-01  8.13757318e-01  1.00000000e+00  1.83470016e-03  1.40373012e-02
  6.88426061e-02  2.32184421e-01  4.67941342e-01  3.62312032e-01 -1.19332409e-01
 -1.60854212e-01  1.14345648e+00  6.89990956e-02  3.16423980e-01  7.44308252e-01
  1.00000000e+00  1.00000000e+00  1.00000000e+00  1.00000000e+00  1.00000000e+00
  3.34945995e-02  2.34726947e-01  8.13757318e-01  1.00000000e+00  3.34945995e-02
  2.34726947e-01  8.13757318e-01  1.00000000e+00  3.34945995e-02  2.34726947e-01
  8.13757318e-01  1.00000000e+00  3.34945995e-02  2.34726947e-01  8.13757318e-01
  1.00000000e+00  3.34945995e-02  2.34726947e-01  8.13757318e-01  1.00000000e+00
  3.34945995e-02  2.34726947e-01  8.13757318e-01  1.00000000e+00  3.34945995e-02
  2.34726947e-01  8.13757318e-01  1.00000000e+00
Coordinates of each shell                  R   N=         462
  1.83903383e-03  8.34694749e-01 -2.04789667e-01  1.83903383e-03  8.34694749e-01
 -2.04789667e-01  1.83903383e-03  8.34694749e-01 -2.04789667e-01  1.83903383e-03
  8.34694749e-01 -2.04789667e-01  1.83903383e-03  8.34694749e-01 -2.04789667e-01
  1.83903383e-03  8.34694749e-01 -2.04789667e-01  1.83903383e-03  8.34694749e-01
 -2.04789667e-01  1.83903383e-03  8.34694749e-01 -2.04789667e-01  2.54538913e+00
  1.06407405e+00  5.99287296e-01  2.54538913e+00  1.06407405e+00  5.99287296e-01
  2.54538913e+00  1.06407405e+00  5.99287296e-01  2.54538913e+00  1.06407405e+00
  5.99287296e-01  2.54538913e+00  1.06407405e+00  5.99287296e-01  2.54538913e+00
  1.06407405e+00  5.99287296e-01  2.54538913e+00  1.06407405e+00  5.99287296e-01
  2.54538913e+00  1.06407405e+00  5.99287296e-01  4.57357857e+00  8.96984497e-01
 -1.06733538e+00  4.57357857e+00  8.96984497e-01 -1.06733538e+00  4.57357857e+00
  8.96984497e-01 -1.06733538e+00  4.57357857e+00  8.96984497e-01 -1.06733538e+00
  4.57357857e+00  8.96984497e-01 -1.06733538e+00  4.57357857e+00  8.96984497e-01
 -1.06733538e+00  4.57357857e+00  8.96984497e-01 -1.06733538e+00  4.57357857e+00
  8.96984497e-01 -1.06733538e+00  4.07060255e+00  4.90354638e-01 -3.64198912e+00
  4.07060255e+00  4.90354638e-01 -3.64198912e+00  4.07060255e+00  4.90354638e-01
 -3.64198912e+00  4.07060255e+00  4.90354638e-01 -3.64198912e+00  4.07060255e+00
  4.90354638e-01 -3.64198912e+00  4.07060255e+00  4.90354638e-01 -3.64198912e+00
  4.07060255e+00  4.90354638e-01 -3.64198912e+00  4.07060255e+00  4.90354638e-01
 -3.64198912e+00  1.53463579e+00  2.75498584e-01 -4.40811124e+00  1.53463579e+00
  2.75498584e-01 -4.40811124e+00  1.53463579e+00  2.75498584e-01 -4.40811124e+00
  1.53463579e+00  2.75498584e-01 -4.40811124e+00  1.53463579e+00  2.75498584e-01
 -4.40811124e+00  1.53463579e+00  2.75498584e-01 -4.40811124e+00  1.53463579e+00
  2.75498584e-01 -4.40811124e+00  1.53463579e+00  2.75498584e-01 -4.40811124e+00
 -5.12610102e-01  4.36639984e-01 -2.76835891e+00 -5.12610102e-01  4.36639984e-01
 -2.76835891e+00 -5.12610102e-01  4.36639984e-01 -2.76835891e+00 -5.12610102e-01
  4.36639984e-01 -2.76835891e+00 -5.12610102e-01  4.36639984e-01 -2.76835891e+00
 -5.12610102e-01  4.36639984e-01 -2.76835891e+00 -5.12610102e-01  4.36639984e-01
 -2.76835891e+00 -5.12610102e-01  4.36639984e-01 -2.76835891e+00  6.50179098e+00
  1.09015953e+00 -3.85902255e-01  6.50179098e+00  1.09015953e+00 -3.85902255e-01
 -2.43747127e+00  2.66783361e-01 -3.46135967e+00 -2.43747127e+00  2.66783361e-01
 -3.46135967e+00  1.40249394e+00 -1.00492296e-01 -6.97016528e+00  1.40249394e+00
 -1.00492296e-01 -6.97016528e+00  1.40249394e+00 -1.00492296e-01 -6.97016528e+00
  1.40249394e+00 -1.00492296e-01 -6.97016528e+00  1.40249394e+00 -1.00492296e-01
 -6.97016528e+00  1.40249394e+00 -1.00492296e-01 -6.97016528e+00  1.40249394e+00
 -1.00492296e-01 -6.97016528e+00  1.40249394e+00 -1.00492296e-01 -6.97016528e+00
  3.85789926e+00 -1.25547699e-01 -7.82365183e+00  3.85789926e+00 -1.25547699e-01
 -7.82365183e+00  3.85789926e+00 -1.25547699e-01 -7.82365183e+00  3.85789926e+00
 -1.25547699e-01 -7.82365183e+00  3.85789926e+00 -1.25547699e-01 -7.82365183e+00
  3.85789926e+00 -1.25547699e-01 -7.82365183e+00  3.85789926e+00 -1.25547699e-01
 -7.82365183e+00  3.85789926e+00 -1.25547699e-01 -7.82365183e+00  5.54631557e+00
  2.20720145e-01 -5.92364115e+00  5.54631557e+00  2.20720145e-01 -5.92364115e+00
  5.54631557e+00  2.20720145e-01 -5.92364115e+00  5.54631557e+00  2.20720145e-01
 -5.92364115e+00  5.54631557e+00  2.20720145e-01 -5.92364115e+00  5.54631557e+00
  2.20720145e-01 -5.92364115e+00  5.54631557e+00  2.20720145e-01 -5.92364115e+00
  5.54631557e+00  2.20720145e-01 -5.92364115e+00  2.91978579e+00  1.39800720e+00
  2.59304645e+00  2.91978579e+00  1.39800720e+00  2.59304645e+00 -2.12360816e+00
  1.00895888e+00  1.70475241e+00 -2.12360816e+00  1.00895888e+00  1.70475241e+00
 -2.12360816e+00  1.00895888e+00  1.70475241e+00 -2.12360816e+00  1.00895888e+00
  1.70475241e+00 -2.12360816e+00  1.00895888e+00  1.70475241e+00 -2.12360816e+00
  1.00895888e+00  1.70475241e+00 -2.12360816e+00  1.00895888e+00  1.70475241e+00
 -2.12360816e+00  1.00895888e+00  1.70475241e+00 -2.41887173e+00 -1.35686045e+00
  3.41045910e+00 -2.41887173e+00 -1.35686045e+00  3.41045910e+00 -2.41887173e+00
 -1.35686045e+00  3.41045910e+00 -2.41887173e+00 -1.35686045e+00  3.41045910e+00
 -2.41887173e+00 -1.35686045e+00  3.41045910e+00 -2.41887173e+00 -1.35686045e+00
  3.41045910e+00 -2.41887173e+00 -1.35686045e+00  3.41045910e+00 -2.41887173e+00
 -1.35686045e+00  3.41045910e+00 -3.93232166e+00  1.32907353e+00  7.44646406e-01
 -3.93232166e+00  1.32907353e+00  7.44646406e-01 -1.80219707e+00  2.65892256e+00
  2.91776520e+00 -1.80219707e+00  2.65892256e+00  2.91776520e+00 -3.30299690e+00
 -3.65797067e+00  1.89635260e+00 -3.30299690e+00 -3.65797067e+00  1.89635260e+00
 -3.30299690e+00 -3.65797067e+00  1.89635260e+00 -3.30299690e+00 -3.65797067e+00
  1.89635260e+00 -3.30299690e+00 -3.65797067e+00  1.89635260e+00 -3.30299690e+00
 -3.65797067e+00  1.89635260e+00 -3.30299690e+00 -3.65797067e+00  1.89635260e+00
 -3.30299690e+00 -3.65797067e+00  1.89635260e+00 -5.19294294e+00 -3.32381363e+00
  1.11057426e+00 -5.19294294e+00 -3.32381363e+00  1.11057426e+00 -3.39115460e+00
 -5.34756014e+00  3.09726636e+00 -3.39115460e+00 -5.34756014e+00  3.09726636e+00
 -2.00928375e+00 -4.06425192e+00  3.35132163e-01 -2.00928375e+00 -4.06425192e+00
  3.35132163e-01 -4.25671326e+00 -8.29423870e-01  5.42645751e+00 -4.25671326e+00
 -8.29423870e-01  5.42645751e+00 -4.25671326e+00 -8.29423870e-01  5.42645751e+00
 -4.25671326e+00 -8.29423870e-01  5.42645751e+00 -4.25671326e+00 -8.29423870e-01
  5.42645751e+00 -4.25671326e+00 -8.29423870e-01  5.42645751e+00 -4.25671326e+00
 -8.29423870e-01  5.42645751e+00 -4.25671326e+00 -8.29423870e-01  5.42645751e+00
 -5.41993253e-01 -1.79767882e+00  4.22530519e+00 -5.41993253e-01 -1.79767882e+00
  4.22530519e+00 -3.28274744e+00  5.96433507e-01  7.58860250e+00 -3.28274744e+00
  5.96433507e-01  7.58860250e+00 -3.28274744e+00  5.96433507e-01  7.58860250e+00
 -3.28274744e+00  5.96433507e-01  7.58860250e+00 -3.28274744e+00  5.96433507e-01
  7.58860250e+00 -3.28274744e+00  5.96433507e-01  7.58860250e+00 -3.28274744e+00
  5.96433507e-01  7.58860250e+00 -3.28274744e+00  5.96433507e-01  7.58860250e+00
 -4.98473539e+00 -2.49432833e+00  6.06368374e+00 -4.98473539e+00 -2.49432833e+00
  6.06368374e+00 -5.29746262e+00  8.72288842e-01  9.63879614e+00 -5.29746262e+00
  8.72288842e-01  9.63879614e+00 -5.29746262e+00  8.72288842e-01  9.63879614e+00
 -5.29746262e+00  8.72288842e-01  9.63879614e+00 -5.29746262e+00  8.72288842e-01
  9.63879614e+00 -5.29746262e+00  8.72288842e-01  9.63879614e+00 -5.29746262e+00
  8.72288842e-01  9.63879614e+00 -5.29746262e+00  8.72288842e-01  9.63879614e+00
 -2.71551074e+00  2.47951335e+00  6.93535238e+00 -2.71551074e+00  2.47951335e+00
  6.93535238e+00 -1.56853609e+00 -2.91060602e-01  8.40107946e+00 -1.56853609e+00
 -2.91060602e-01  8.40107946e+00 -6.97541929e+00  1.82712799e+00  8.89131614e+00
 -6.97541929e+00  1.82712799e+00  8.89131614e+00 -4.56989483e+00  1.97029774e+00
  1.12377171e+01 -4.56989483e+00  1.97029774e+00  1.12377171e+01 -5.88507179e+00
 -9.80133256e-01  1.03672195e+01 -5.88507179e+00 -9.80133256e-01  1.03672195e+01
  7.58108269e+00  2.77869592e-01 -6.11235388e+00  7.58108269e+00  2.77869592e-01
 -6.11235388e+00  4.06972830e+00 -4.09965753e-01 -9.83361824e+00  4.06972830e+00
 -4.09965753e-01 -9.83361824e+00
Total Energy                               R     -6.356072413845130e+02
Alpha Orbital Energies                     R   N=         319
 -1.92208639e+01 -1.43235026e+01 -1.02524402e+01 -1.02479816e+01 -1.02195948e+01
 -1.02120534e+01 -1.02037039e+01 -1.02017307e+01 -1.02004034e+01 -1.01993887e+01
 -1.01977768e+01 -1.01927746e+01 -1.01869743e+01 -1.01811643e+01 -1.01787553e+01
 -1.11300419e+00 -9.09621358e-01 -8.63108023e-01 -8.10512991e-01 -7.83600285e-01
 -7.54760943e-01 -7.45302259e-01 -7.14339742e-01 -6.87036612e-01 -6.33420018e-01
 -6.12505258e-01 -6.03769673e-01 -5.95264682e-01 -5.61436987e-01 -5.27107270e-01
 -4.97782934e-01 -4.93213674e-01 -4.72193246e-01 -4.65854115e-01 -4.59519411e-01
 -4.55133911e-01 -4.44672188e-01 -4.35090412e-01 -4.32751783e-01 -4.07553497e-01
 -4.02101037e-01 -3.88559774e-01 -3.82619231e-01 -3.72087597e-01 -3.69448369e-01
 -3.63520242e-01 -3.61686324e-01 -3.51318287e-01 -3.40082162e-01 -3.36637287e-01
 -3.28011650e-01 -2.95329374e-01 -2.43466670e-01 -2.30291576e-01 -2.21271780e-01
 -2.86338761e-02 -2.29157480e-03  5.15681441e-03  1.14219867e-02  1.51362210e-02
  1.80081966e-02  2.18322253e-02  2.81323787e-02  3.21581848e-02  4.00544099e-02
  4.25629705e-02  4.66690398e-02  4.75605650e-02  5.57133324e-02  5.90015672e-02
  6.58516614e-02  6.77727975e-02  7.49419824e-02  8.13748698e-02  8.65994618e-02