Generated by Psi4
     FORCE                           RHF                       TESTBAS
Number of atoms                            I               35
Charge                                     I                0
Multiplicity                               I                1
Number of electrons                        I              118
Number of alpha electrons                  I               59
Number of beta electrons                   I               59
Number of basis functions                  I              342
Number of independent functions            I              342
Atomic numbers                             I   N=          35
           6           6           6           7           6           6
           6           6           6           1           1           6
           1           6           8           1           6           1
           1           6           6           1           1           1
           1           1           1           6           1           1
           1           1           1           1           1
Nuclear charges                            R   N=          35
  6.00000000e+00  6.00000000e+00  6.00000000e+00  7.00000000e+00  6.00000000e+00
  6.00000000e+00  6.00000000e+00  6.00000000e+00  6.00000000e+00  1.00000000e+00
  1.00000000e+00  6.00000000e+00  1.00000000e+00  6.00000000e+00  8.00000000e+00
  1.00000000e+00  6.00000000e+00  1.00000000e+00  1.00000000e+00  6.00000000e+00
  6.00000000e+00  1.00000000e+00  1.00000000e+00  1.00000000e+00  1.00000000e+00
  1.00000000e+00  1.00000000e+00  6.00000000e+00  1.00000000e+00  1.00000000e+00
  1.00000000e+00  1.00000000e+00  1.00000000e+00  1.00000000e+00  1.00000000e+00
Current cartesian coordinates              R   N=         105
  9.81340059e-01 -7.55311801e-01 -2.75490409e+00 -1.24381703e+00  8.65207355e-01
 -2.06210994e+00 -1.42902155e+00  2.18963367e+00  5.30568396e-01 -1.29613508e+00
  3.95127848e-01  2.64023442e+00  2.87874279e+00 -1.44468651e+00 -1.02873503e+00
  4.91141891e+00 -2.93599866e+00 -1.81201571e+00  5.07586381e+00 -3.75088563e+00
 -4.31798404e+00  3.19120453e+00 -3.07687982e+00 -6.04867904e+00  1.16028565e+00
 -1.59405095e+00 -5.27197664e+00  2.72029633e+00 -8.57860799e-01  9.27647993e-01
  6.36443624e+00 -3.46594698e+00 -4.59836677e-01  6.13986741e-01  4.30421771e+00
  6.99481808e-01 -3.31226019e+00  3.09675548e+00  4.84754580e-01 -3.20251936e+00
 -1.62641850e+00  2.50666389e+00 -2.90777163e+00  1.28002554e+00 -3.61857849e+00
 -3.15702974e-01 -1.05310241e+00 -6.58977377e+00 -3.07652413e+00 -2.88888062e+00
  5.12534267e+00 -2.78272451e+00 -2.92894916e+00  9.54764775e-01 -5.10700874e+00
 -8.27185795e-01  2.16466273e+00 -1.68426161e+00  1.51620540e+00  5.15082176e+00
 -2.02593998e+00 -7.88328929e-01  6.89387645e+00 -1.80328877e+00 -4.51909743e+00
  5.08841809e+00 -4.93680052e+00 -3.57077539e+00  5.72055366e+00 -2.09010039e-01
 -1.35658729e+00  7.70476432e+00 -3.29924734e+00 -3.59513454e-01  8.46738064e+00
 -3.40729439e+00  2.70914386e+00  5.17589906e+00 -8.36812126e-02  2.70700758e+00
  5.69336517e+00 -3.83827268e-01  6.83648009e+00  1.70124312e+00  1.41682536e+00
  4.62844842e+00 -1.18490035e+00  2.18245617e+00  3.62338795e+00  1.87032618e+00
  3.31137177e+00 -3.70764585e+00 -7.99998953e+00  6.66164354e+00 -4.90929926e+00
 -4.92247536e+00 -1.86605825e+00  7.58640708e+00  4.62773865e-01  1.14053985e+00
  8.23832112e+00  1.78014396e+00 -1.18295770e+00  6.66441819e+00  3.60338223e+00
Integer atomic weights                     I   N=          35
          12          12          12          14          12          12
          12          12          12           1           1          12
           1          12          15           1          12           1
           1          12          12           1           1           1
           1           1           1          12           1           1
           1           1           1           1           1
Real atomic weights                        R   N=          35
  1.20000000e+01  1.20000000e+01  1.20000000e+01  1.40030740e+01  1.20000000e+01
  1.20000000e+01  1.20000000e+01  1.20000000e+01  1.20000000e+01  1.00782503e+00
  1.00782503e+00  1.20000000e+01  1.00782503e+00  1.20000000e+01  1.59949146e+01
  1.00782503e+00  1.20000000e+01  1.00782503e+00  1.00782503e+00  1.20000000e+01
  1.20000000e+01  1.00782503e+00  1.00782503e+00  1.00782503e+00  1.00782503e+00
  1.00782503e+00  1.00782503e+00  1.20000000e+01  1.00782503e+00  1.00782503e+00
  1.00782503e+00  1.00782503e+00  1.00782503e+00  1.00782503e+00  1.00782503e+00
Number of primitive shells                 I              348
Number of contracted shells                I              166
Pure/Cartesian d shells                    I                1
Pure/Cartesian f shells                    I                1
Highest angular momentum                   I                2
Largest degree of contraction              I                6
Shell types                                I   N=         166
           0           0           1           0           1           2
           0           1           0           0           1           0
           1           2           0           1           0           0
           1           0           1           2           0           1
           0           0           1           0           1           2
           0           1           0           0           1           0
           1           2           0           1           0           0
           1           0           1           2           0           1
           0           0           1           0           1           2
           0           1           0           0           1           0
           1           2           0           1           0           0
           1           0           1           2           0           1
           0           0           0           0           0           0
           1           0           1           2           0           1
           0           0           0           0           1           0
           1           2           0           1           0           0
           1           0           1           2           0           1
           0           0           0           0           1           0
           1           2           0           1           0           0
           0           0           0           0           1           0
           1           2           0           1           0           0
           1           0           1           2           0           1
           0           0           0           0           0           0
           0           0           0           0           0           0
           0           0           1           0           1           2
           0           1           0           0           0           0
           0           0           0           0           0           0
           0           0           0           0
Number of primitives per shell             I   N=         166
           6           3           3           1           1           1
           1           1           6           3           3           1
           1           1           1           1           6           3
           3           1           1           1           1           1
           6           3           3           1           1           1
           1           1           6           3           3           1
           1           1           1           1           6           3
           3           1           1           1           1           1
           6           3           3           1           1           1
           1           1           6           3           3           1
           1           1           1           1           6           3
           3           1           1           1           1           1
           3           1           3           1           6           3
           3           1           1           1           1           1
           3           1           6           3           3           1
           1           1           1           1           6           3
           3           1           1           1           1           1
           3           1           6           3           3           1
           1           1           1           1           3           1
           3           1           6           3           3           1
           1           1           1           1           6           3
           3           1           1           1           1           1
           3           1           3           1           3           1
           3           1           3           1           3           1
           6           3           3           1           1           1
           1           1           3           1           3           1
           3           1           3           1           3           1
           3           1           3           1
Shell to atom map                          I   N=         166
           1           1           1           1           1           1
           1           1           2           2           2           2
           2           2           2           2           3           3
           3           3           3           3           3           3
           4           4           4           4           4           4
           4           4           5           5           5           5
           5           5           5           5           6           6
           6           6           6           6           6           6
           7           7           7           7           7           7
           7           7           8           8           8           8
           8           8           8           8           9           9
           9           9           9           9           9           9
          10          10          11          11          12          12
          12          12          12          12          12          12
          13          13          14          14          14          14
          14          14          14          14          15          15
          15          15          15          15          15          15
          16          16          17          17          17          17
          17          17          17          17          18          18
          19          19          20          20          20          20
          20          20          20          20          21          21
          21          21          21          21          21          21
          22          22          23          23          24          24
          25          25          26          26          27          27
          28          28          28          28          28          28
          28          28          29          29          30          30
          31          31          32          32          33          33
          34          34          35          35
Primitive exponents                        R   N=         348
  3.04752490e+03  4.57369510e+02  1.03948690e+02  2.92101550e+01  9.28666300e+00
  3.16392700e+00  7.86827240e+00  1.88128850e+00  5.44249300e-01  7.86827240e+00
  1.88128850e+00  5.44249300e-01  1.68714400e-01  1.68714400e-01  8.00000000e-01
  4.38000000e-02  4.38000000e-02  3.04752490e+03  4.57369510e+02  1.03948690e+02
  2.92101550e+01  9.28666300e+00  3.16392700e+00  7.86827240e+00  1.88128850e+00
  5.44249300e-01  7.86827240e+00  1.88128850e+00  5.44249300e-01  1.68714400e-01
  1.68714400e-01  8.00000000e-01  4.38000000e-02  4.38000000e-02  3.04752490e+03
  4.57369510e+02  1.03948690e+02  2.92101550e+01  9.28666300e+00  3.16392700e+00
  7.86827240e+00  1.88128850e+00  5.44249300e-01  7.86827240e+00  1.88128850e+00
  5.44249300e-01  1.68714400e-01  1.68714400e-01  8.00000000e-01  4.38000000e-02
  4.38000000e-02  4.17351100e+03  6.27457900e+02  1.42902100e+02  4.02343300e+01
  1.28202100e+01  4.39043700e+00  1.16263580e+01  2.71628000e+00  7.72218000e-01
  1.16263580e+01  2.71628000e+00  7.72218000e-01  2.12031300e-01  2.12031300e-01
  8.00000000e-01  6.39000000e-02  6.39000000e-02  3.04752490e+03  4.57369510e+02
  1.03948690e+02  2.92101550e+01  9.28666300e+00  3.16392700e+00  7.86827240e+00
  1.88128850e+00  5.44249300e-01  7.86827240e+00  1.88128850e+00  5.44249300e-01
  1.68714400e-01  1.68714400e-01  8.00000000e-01  4.38000000e-02  4.38000000e-02
  3.04752490e+03  4.57369510e+02  1.03948690e+02  2.92101550e+01  9.28666300e+00
  3.16392700e+00  7.86827240e+00  1.88128850e+00  5.44249300e-01  7.86827240e+00
  1.88128850e+00  5.44249300e-01  1.68714400e-01  1.68714400e-01  8.00000000e-01
  4.38000000e-02  4.38000000e-02  3.04752490e+03  4.57369510e+02  1.03948690e+02
  2.92101550e+01  9.28666300e+00  3.16392700e+00  7.86827240e+00  1.88128850e+00
  5.44249300e-01  7.86827240e+00  1.88128850e+00  5.44249300e-01  1.68714400e-01
  1.68714400e-01  8.00000000e-01  4.38000000e-02  4.38000000e-02  3.04752490e+03
  4.57369510e+02  1.03948690e+02  2.92101550e+01  9.28666300e+00  3.16392700e+00
  7.86827240e+00  1.88128850e+00  5.44249300e-01  7.86827240e+00  1.88128850e+00
  5.44249300e-01  1.68714400e-01  1.68714400e-01  8.00000000e-01  4.38000000e-02
  4.38000000e-02  3.04752490e+03  4.57369510e+02  1.03948690e+02  2.92101550e+01
  9.28666300e+00  3.16392700e+00  7.86827240e+00  1.88128850e+00  5.44249300e-01
  7.86827240e+00  1.88128850e+00  5.44249300e-01  1.68714400e-01  1.68714400e-01
  8.00000000e-01  4.38000000e-02  4.38000000e-02  1.87311370e+01  2.82539370e+00
  6.40121700e-01  1.61277800e-01  1.87311370e+01  2.82539370e+00  6.40121700e-01
  1.61277800e-01  3.04752490e+03  4.57369510e+02  1.03948690e+02  2.92101550e+01
  9.28666300e+00  3.16392700e+00  7.86827240e+00  1.88128850e+00  5.44249300e-01
  7.86827240e+00  1.88128850e+00  5.44249300e-01  1.68714400e-01  1.68714400e-01
  8.00000000e-01  4.38000000e-02  4.38000000e-02  1.87311370e+01  2.82539370e+00
  6.40121700e-01  1.61277800e-01  3.04752490e+03  4.57369510e+02  1.03948690e+02
  2.92101550e+01  9.28666300e+00  3.16392700e+00  7.86827240e+00  1.88128850e+00
  5.44249300e-01  7.86827240e+00  1.88128850e+00  5.44249300e-01  1.68714400e-01
  1.68714400e-01  8.00000000e-01  4.38000000e-02  4.38000000e-02  5.48467170e+03
  8.25234950e+02  1.88046960e+02  5.29645000e+01  1.68975700e+01  5.79963530e+00
  1.55396160e+01  3.59993360e+00  1.01376180e+00  1.55396160e+01  3.59993360e+00
  1.01376180e+00  2.70005800e-01  2.70005800e-01  8.00000000e-01  8.45000000e-02
  8.45000000e-02  1.87311370e+01  2.82539370e+00  6.40121700e-01  1.61277800e-01
  3.04752490e+03  4.57369510e+02  1.03948690e+02  2.92101550e+01  9.28666300e+00
  3.16392700e+00  7.86827240e+00  1.88128850e+00  5.44249300e-01  7.86827240e+00
  1.88128850e+00  5.44249300e-01  1.68714400e-01  1.68714400e-01  8.00000000e-01
  4.38000000e-02  4.38000000e-02  1.87311370e+01  2.82539370e+00  6.40121700e-01
  1.61277800e-01  1.87311370e+01  2.82539370e+00  6.40121700e-01  1.61277800e-01
  3.04752490e+03  4.57369510e+02  1.03948690e+02  2.92101550e+01  9.28666300e+00
  3.16392700e+00  7.86827240e+00  1.88128850e+00  5.44249300e-01  7.86827240e+00
  1.88128850e+00  5.44249300e-01  1.68714400e-01  1.68714400e-01  8.00000000e-01
  4.38000000e-02  4.38000000e-02  3.04752490e+03  4.57369510e+02  1.03948690e+02
  2.92101550e+01  9.28666300e+00  3.16392700e+00  7.86827240e+00  1.88128850e+00
  5.44249300e-01  7.86827240e+00  1.88128850e+00  5.44249300e-01  1.68714400e-01
  1.68714400e-01  8.00000000e-01  4.38000000e-02  4.38000000e-02  1.87311370e+01
  2.82539370e+00  6.40121700e-01  1.61277800e-01  1.87311370e+01  2.82539370e+00
  6.40121700e-01  1.61277800e-01  1.87311370e+01  2.82539370e+00  6.40121700e-01
  1.61277800e-01  1.87311370e+01  2.82539370e+00  6.40121700e-01  1.61277800e-01
  1.87311370e+01  2.82539370e+00  6.40121700e-01  1.61277800e-01  1.87311370e+01
  2.82539370e+00  6.40121700e-01  1.61277800e-01  3.04752490e+03  4.57369510e+02
  1.03948690e+02  2.92101550e+01  9.28666300e+00  3.16392700e+00  7.86827240e+00
  1.88128850e+00  5.44249300e-01  7.86827240e+00  1.88128850e+00  5.44249300e-01
  1.68714400e-01  1.68714400e-01  8.00000000e-01  4.38000000e-02  4.38000000e-02
  1.87311370e+01  2.82539370e+00  6.40121700e-01  1.61277800e-01  1.87311370e+01
  2.82539370e+00  6.40121700e-01  1.61277800e-01  1.87311370e+01  2.82539370e+00
  6.40121700e-01  1.61277800e-01  1.87311370e+01  2.82539370e+00  6.40121700e-01
  1.61277800e-01  1.87311370e+01  2.82539370e+00  6.40121700e-01  1.61277800e-01
  1.87311370e+01  2.82539370e+00  6.40121700e-01  1.61277800e-01  1.87311370e+01
  2.82539370e+00  6.40121700e-01  1.61277800e-01
Contraction coefficients                   R   N=         348
  1.83470016e-03  1.40373012e-02  6.88426061e-02  2.32184421e-01  4.67941342e-01
  3.62312032e-01 -1.19332409e-01 -1.60854212e-01  1.14345648e+00  6.89990956e-02
  3.16423980e-01  7.44308252e-01  1.00000000e+00  1.00000000e+00  1.00000000e+00
  1.00000000e+00  1.00000000e+00  1.83470016e-03  1.40373012e-02  6.88426061e-02
  2.32184421e-01  4.67941342e-01  3.62312032e-01 -1.19332409e-01 -1.60854212e-01
  1.14345648e+00  6.89990956e-02  3.16423980e-01  7.44308252e-01  1.00000000e+00
  1.00000000e+00  1.00000000e+00  1.00000000e+00  1.00000000e+00  1.83470016e-03
  1.40373012e-02  6.88426061e-02  2.32184421e-01  4.67941342e-01  3.62312032e-01
 -1.19332409e-01 -1.60854212e-01  1.14345648e+00  6.89990956e-02  3.16423980e-01
  7.44308252e-01  1.00000000e+00  1.00000000e+00  1.00000000e+00  1.00000000e+00
  1.00000000e+00  1.83479944e-03  1.39949958e-02  6.85869792e-02  2.32240930e-01
  4.69069858e-01  3.60454891e-01 -1.14961023e-01 -1.69118034e-01  1.14585223e+00
  6.75800232e-02  3.23907111e-01  7.40895255e-01  1.00000000e+00  1.00000000e+00
  1.00000000e+00  1.00000000e+00  1.00000000e+00  1.83470016e-03  1.40373012e-02
  6.88426061e-02  2.32184421e-01  4.67941342e-01  3.62312032e-01 -1.19332409e-01
 -1.60854212e-01  1.14345648e+00  6.89990956e-02  3.16423980e-01  7.44308252e-01
  1.00000000e+00  1.00000000e+00  1.00000000e+00  1.00000000e+00  1.00000000e+00
  1.83470016e-03  1.40373012e-02  6.88426061e-02  2.32184421e-01  4.67941342e-01
  3.62312032e-01 -1.19332409e-01 -1.60854212e-01  1.14345648e+00  6.89990956e-02
  3.16423980e-01  7.44308252e-01  1.00000000e+00  1.00000000e+00  1.00000000e+00
  1.00000000e+00  1.00000000e+00  1.83470016e-03  1.40373012e-02  6.88426061e-02
  2.32184421e-01  4.67941342e-01  3.62312032e-01 -1.19332409e-01 -1.60854212e-01
  1.14345648e+00  6.89990956e-02  3.16423980e-01  7.44308252e-01  1.00000000e+00
  1.00000000e+00  1.00000000e+00  1.00000000e+00  1.00000000e+00  1.83470016e-03
  1.40373012e-02  6.88426061e-02  2.32184421e-01  4.67941342e-01  3.62312032e-01
 -1.19332409e-01 -1.60854212e-01  1.14345648e+00  6.89990956e-02  3.16423980e-01
  7.44308252e-01  1.00000000e+00  1.00000000e+00  1.00000000e+00  1.00000000e+00
  1.00000000e+00  1.83470016e-03  1.40373012e-02  6.88426061e-02  2.32184421e-01
  4.67941342e-01  3.62312032e-01 -1.19332409e-01 -1.60854212e-01  1.14345648e+00
  6.89990956e-02  3.16423980e-01  7.44308252e-01  1.00000000e+00  1.00000000e+00
  1.00000000e+00  1.00000000e+00  1.00000000e+00  3.34945995e-02  2.34726947e-01
  8.13757318e-01  1.00000000e+00  3.34945995e-02  2.34726947e-01  8.13757318e-01
  1.00000000e+00  1.83470016e-03  1.40373012e-02  6.88426061e-02  2.32184421e-01
  4.67941342e-01  3.62312032e-01 -1.19332409e-01 -1.60854212e-01  1.14345648e+00
  6.89990956e-02  3.16423980e-01  7.44308252e-01  1.00000000e+00  1.00000000e+00
  1.00000000e+00  1.00000000e+00  1.00000000e+00  3.34945995e-02  2.34726947e-01
  8.13757318e-01  1.00000000e+00  1.83470016e-03  1.40373012e-02  6.88426061e-02
  2.32184421e-01  4.67941342e-01  3.62312032e-01 -1.19332409e-01 -1.60854212e-01
  1.14345648e+00  6.89990956e-02  3.16423980e-01  7.44308252e-01  1.00000000e+00
  1.00000000e+00  1.00000000e+00  1.00000000e+00  1.00000000e+00  1.83109981e-03
  1.39500985e-02  6.84450927e-02  2.32714275e-01  4.70192950e-01  3.58520862e-01
 -1.10777504e-01 -1.48026305e-01  1.13076704e+00  7.08742995e-02  3.39752798e-01
  7.27158595e-01  1.00000000e+00  1.00000000e+00  1.00000000e+00  1.00000000e+00
  1.00000000e+00  3.34945995e-02  2.34726947e-01  8.13757318e-01  1.00000000e+00
  1.83470016e-03  1.40373012e-02  6.88426061e-02  2.32184421e-01  4.67941342e-01
  3.62312032e-01 -1.19332409e-01 -1.60854212e-01  1.14345648e+00  6.89990956e-02
  3.16423980e-01  7.44308252e-01  1.00000000e+00  1.00000000e+00  1.00000000e+00
  1.00000000e+00  1.00000000e+00  3.34945995e-02  2.34726947e-01  8.13757318e-01
  1.00000000e+00  3.34945995e-02  2.34726947e-01  8.13757318e-01  1.00000000e+00
  1.83470016e-03  1.40373012e-02  6.88426061e-02  2.32184421e-01  4.67941342e-01
  3.62312032e-01 -1.19332409e-01 -1.60854212e-01  1.14345648e+00  6.89990956e-02
  3.16423980e-01  7.44308252e-01  1.00000000e+00  1.00000000e+00  1.00000000e+00
  1.00000000e+00  1.00000000e+00  1.83470016e-03  1.40373012e-02  6.88426061e-02
  2.32184421e-01  4.67941342e-01  3.62312032e-01 -1.19332409e-01 -1.60854212e-01
  1.14345648e+00  6.89990956e-02  3.16423980e-01  7.44308252e-01  1.00000000e+00
  1.00000000e+00  1.00000000e+00  1.00000000e+00  1.00000000e+00  3.34945995e-02
  2.34726947e-01  8.13757318e-01  1.00000000e+00  3.34945995e-02  2.34726947e-01
  8.13757318e-01  1.00000000e+00  3.34945995e-02  2.34726947e-01  8.13757318e-01
  1.00000000e+00  3.34945995e-02  2.34726947e-01  8.13757318e-01  1.00000000e+00
  3.34945995e-02  2.34726947e-01  8.13757318e-01  1.00000000e+00  3.34945995e-02
  2.34726947e-01  8.13757318e-01  1.00000000e+00  1.83470016e-03  1.40373012e-02
  6.88426061e-02  2.32184421e-01  4.67941342e-01  3.62312032e-01 -1.19332409e-01
 -1.60854212e-01  1.14345648e+00  6.89990956e-02  3.16423980e-01  7.44308252e-01
  1.00000000e+00  1.00000000e+00  1.00000000e+00  1.00000000e+00  1.00000000e+00
  3.34945995e-02  2.34726947e-01  8.13757318e-01  1.00000000e+00  3.34945995e-02
  2.34726947e-01  8.13757318e-01  1.00000000e+00  3.34945995e-02  2.34726947e-01
  8.13757318e-01  1.00000000e+00  3.34945995e-02  2.34726947e-01  8.13757318e-01
  1.00000000e+00  3.34945995e-02  2.34726947e-01  8.13757318e-01  1.00000000e+00
  3.34945995e-02  2.34726947e-01  8.13757318e-01  1.00000000e+00  3.34945995e-02
  2.34726947e-01  8.13757318e-01  1.00000000e+00
Coordinates of each shell                  R   N=         498
  9.81340059e-01 -7.55311801e-01 -2.75490409e+00  9.81340059e-01 -7.55311801e-01
 -2.75490409e+00  9.81340059e-01 -7.55311801e-01 -2.75490409e+00  9.81340059e-01
 -7.55311801e-01 -2.75490409e+00  9.81340059e-01 -7.55311801e-01 -2.75490409e+00
  9.81340059e-01 -7.55311801e-01 -2.75490409e+00  9.81340059e-01 -7.55311801e-01
 -2.75490409e+00  9.81340059e-01 -7.55311801e-01 -2.75490409e+00 -1.24381703e+00
  8.65207355e-01 -2.06210994e+00 -1.24381703e+00  8.65207355e-01 -2.06210994e+00
 -1.24381703e+00  8.65207355e-01 -2.06210994e+00 -1.24381703e+00  8.65207355e-01
 -2.06210994e+00 -1.24381703e+00  8.65207355e-01 -2.06210994e+00 -1.24381703e+00
  8.65207355e-01 -2.06210994e+00 -1.24381703e+00  8.65207355e-01 -2.06210994e+00
 -1.24381703e+00  8.65207355e-01 -2.06210994e+00 -1.42902155e+00  2.18963367e+00
  5.30568396e-01 -1.42902155e+00  2.18963367e+00  5.30568396e-01 -1.42902155e+00
  2.18963367e+00  5.30568396e-01 -1.42902155e+00  2.18963367e+00  5.30568396e-01
 -1.42902155e+00  2.18963367e+00  5.30568396e-01 -1.42902155e+00  2.18963367e+00
  5.30568396e-01 -1.42902155e+00  2.18963367e+00  5.30568396e-01 -1.42902155e+00
  2.18963367e+00  5.30568396e-01 -1.29613508e+00  3.95127848e-01  2.64023442e+00
 -1.29613508e+00  3.95127848e-01  2.64023442e+00 -1.29613508e+00  3.95127848e-01
  2.64023442e+00 -1.29613508e+00  3.95127848e-01  2.64023442e+00 -1.29613508e+00
  3.95127848e-01  2.64023442e+00 -1.29613508e+00  3.95127848e-01  2.64023442e+00
 -1.29613508e+00  3.95127848e-01  2.64023442e+00 -1.29613508e+00  3.95127848e-01
  2.64023442e+00  2.87874279e+00 -1.44468651e+00 -1.02873503e+00  2.87874279e+00
 -1.44468651e+00 -1.02873503e+00  2.87874279e+00 -1.44468651e+00 -1.02873503e+00
  2.87874279e+00 -1.44468651e+00 -1.02873503e+00  2.87874279e+00 -1.44468651e+00
 -1.02873503e+00  2.87874279e+00 -1.44468651e+00 -1.02873503e+00  2.87874279e+00
 -1.44468651e+00 -1.02873503e+00  2.87874279e+00 -1.44468651e+00 -1.02873503e+00
  4.91141891e+00 -2.93599866e+00 -1.81201571e+00  4.91141891e+00 -2.93599866e+00
 -1.81201571e+00  4.91141891e+00 -2.93599866e+00 -1.81201571e+00  4.91141891e+00
 -2.93599866e+00 -1.81201571e+00  4.91141891e+00 -2.93599866e+00 -1.81201571e+00
  4.91141891e+00 -2.93599866e+00 -1.81201571e+00  4.91141891e+00 -2.93599866e+00
 -1.81201571e+00  4.91141891e+00 -2.93599866e+00 -1.81201571e+00  5.07586381e+00
 -3.75088563e+00 -4.31798404e+00  5.07586381e+00 -3.75088563e+00 -4.31798404e+00
  5.07586381e+00 -3.75088563e+00 -4.31798404e+00  5.07586381e+00 -3.75088563e+00
 -4.31798404e+00  5.07586381e+00 -3.75088563e+00 -4.31798404e+00  5.07586381e+00
 -3.75088563e+00 -4.31798404e+00  5.07586381e+00 -3.75088563e+00 -4.31798404e+00
  5.07586381e+00 -3.75088563e+00 -4.31798404e+00  3.19120453e+00 -3.07687982e+00
 -6.04867904e+00  3.19120453e+00 -3.07687982e+00 -6.04867904e+00  3.19120453e+00
 -3.07687982e+00 -6.04867904e+00  3.19120453e+00 -3.07687982e+00 -6.04867904e+00
  3.19120453e+00 -3.07687982e+00 -6.04867904e+00  3.19120453e+00 -3.07687982e+00
 -6.04867904e+00  3.19120453e+00 -3.07687982e+00 -6.04867904e+00  3.19120453e+00
 -3.07687982e+00 -6.04867904e+00  1.16028565e+00 -1.59405095e+00 -5.27197664e+00
  1.16028565e+00 -1.59405095e+00 -5.27197664e+00  1.16028565e+00 -1.59405095e+00
 -5.27197664e+00  1.16028565e+00 -1.59405095e+00 -5.27197664e+00  1.16028565e+00
 -1.59405095e+00 -5.27197664e+00  1.16028565e+00 -1.59405095e+00 -5.27197664e+00
  1.16028565e+00 -1.59405095e+00 -5.27197664e+00  1.16028565e+00 -1.59405095e+00
 -5.27197664e+00  2.72029633e+00 -8.57860799e-01  9.27647993e-01  2.72029633e+00
 -8.57860799e-01  9.27647993e-01  6.36443624e+00 -3.46594698e+00 -4.59836677e-01
  6.36443624e+00 -3.46594698e+00 -4.59836677e-01  6.13986741e-01  4.30421771e+00
  6.99481808e-01  6.13986741e-01  4.30421771e+00  6.99481808e-01  6.13986741e-01
  4.30421771e+00  6.99481808e-01  6.13986741e-01  4.30421771e+00  6.99481808e-01
  6.13986741e-01  4.30421771e+00  6.99481808e-01  6.13986741e-01  4.30421771e+00
  6.99481808e-01  6.13986741e-01  4.30421771e+00  6.99481808e-01  6.13986741e-01
  4.30421771e+00  6.99481808e-01 -3.31226019e+00  3.09675548e+00  4.84754580e-01
 -3.31226019e+00  3.09675548e+00  4.84754580e-01 -3.20251936e+00 -1.62641850e+00
  2.50666389e+00 -3.20251936e+00 -1.62641850e+00  2.50666389e+00 -3.20251936e+00
 -1.62641850e+00  2.50666389e+00 -3.20251936e+00 -1.62641850e+00  2.50666389e+00
 -3.20251936e+00 -1.62641850e+00  2.50666389e+00 -3.20251936e+00 -1.62641850e+00
  2.50666389e+00 -3.20251936e+00 -1.62641850e+00  2.50666389e+00 -3.20251936e+00
 -1.62641850e+00  2.50666389e+00 -2.90777163e+00  1.28002554e+00 -3.61857849e+00
 -2.90777163e+00  1.28002554e+00 -3.61857849e+00 -2.90777163e+00  1.28002554e+00
 -3.61857849e+00 -2.90777163e+00  1.28002554e+00 -3.61857849e+00 -2.90777163e+00
  1.28002554e+00 -3.61857849e+00 -2.90777163e+00  1.28002554e+00 -3.61857849e+00
 -2.90777163e+00  1.28002554e+00 -3.61857849e+00 -2.90777163e+00  1.28002554e+00
 -3.61857849e+00 -3.15702974e-01 -1.05310241e+00 -6.58977377e+00 -3.15702974e-01
 -1.05310241e+00 -6.58977377e+00 -3.07652413e+00 -2.88888062e+00  5.12534267e+00
 -3.07652413e+00 -2.88888062e+00  5.12534267e+00 -3.07652413e+00 -2.88888062e+00
  5.12534267e+00 -3.07652413e+00 -2.88888062e+00  5.12534267e+00 -3.07652413e+00
 -2.88888062e+00  5.12534267e+00 -3.07652413e+00 -2.88888062e+00  5.12534267e+00
 -3.07652413e+00 -2.88888062e+00  5.12534267e+00 -3.07652413e+00 -2.88888062e+00
  5.12534267e+00 -2.78272451e+00 -2.92894916e+00  9.54764775e-01 -2.78272451e+00
 -2.92894916e+00  9.54764775e-01 -5.10700874e+00 -8.27185795e-01  2.16466273e+00
 -5.10700874e+00 -8.27185795e-01  2.16466273e+00 -1.68426161e+00  1.51620540e+00
  5.15082176e+00 -1.68426161e+00  1.51620540e+00  5.15082176e+00 -1.68426161e+00
  1.51620540e+00  5.15082176e+00 -1.68426161e+00  1.51620540e+00  5.15082176e+00
 -1.68426161e+00  1.51620540e+00  5.15082176e+00 -1.68426161e+00  1.51620540e+00
  5.15082176e+00 -1.68426161e+00  1.51620540e+00  5.15082176e+00 -1.68426161e+00
  1.51620540e+00  5.15082176e+00 -2.02593998e+00 -7.88328929e-01  6.89387645e+00
 -2.02593998e+00 -7.88328929e-01  6.89387645e+00 -2.02593998e+00 -7.88328929e-01
  6.89387645e+00 -2.02593998e+00 -7.88328929e-01  6.89387645e+00 -2.02593998e+00
 -7.88328929e-01  6.89387645e+00 -2.02593998e+00 -7.88328929e-01  6.89387645e+00
 -2.02593998e+00 -7.88328929e-01  6.89387645e+00 -2.02593998e+00 -7.88328929e-01
  6.89387645e+00 -1.80328877e+00 -4.51909743e+00  5.08841809e+00 -1.80328877e+00
 -4.51909743e+00  5.08841809e+00 -4.93680052e+00 -3.57077539e+00  5.72055366e+00
 -4.93680052e+00 -3.57077539e+00  5.72055366e+00 -2.09010039e-01 -1.35658729e+00
  7.70476432e+00 -2.09010039e-01 -1.35658729e+00  7.70476432e+00 -3.29924734e+00
 -3.59513454e-01  8.46738064e+00 -3.29924734e+00 -3.59513454e-01  8.46738064e+00
 -3.40729439e+00  2.70914386e+00  5.17589906e+00 -3.40729439e+00  2.70914386e+00
  5.17589906e+00 -8.36812126e-02  2.70700758e+00  5.69336517e+00 -8.36812126e-02
  2.70700758e+00  5.69336517e+00 -3.83827268e-01  6.83648009e+00  1.70124312e+00
 -3.83827268e-01  6.83648009e+00  1.70124312e+00 -3.83827268e-01  6.83648009e+00
  1.70124312e+00 -3.83827268e-01  6.83648009e+00  1.70124312e+00 -3.83827268e-01
  6.83648009e+00  1.70124312e+00 -3.83827268e-01  6.83648009e+00  1.70124312e+00