Generated by Psi4
     FORCE                           RHF                       TESTBAS
Number of atoms                            I               27
Charge                                     I                0
Multiplicity                               I                1
Number of electrons                        I               94
Number of alpha electrons                  I               47
Number of beta electrons                   I               47
Number of basis functions                  I              275
Number of independent functions            I              275
Atomic numbers                             I   N=          27
           6           6           6           6           6           6
           7           6           6           1           1           1
           1           1           6           6           1           1
           7           1           1           1           6           1
           1           1           1
Nuclear charges                            R   N=          27
  6.00000000e+00  6.00000000e+00  6.00000000e+00  6.00000000e+00  6.00000000e+00
  6.00000000e+00  7.00000000e+00  6.00000000e+00  6.00000000e+00  1.00000000e+00
  1.00000000e+00  1.00000000e+00  1.00000000e+00  1.00000000e+00  6.00000000e+00
  6.00000000e+00  1.00000000e+00  1.00000000e+00  7.00000000e+00  1.00000000e+00
  1.00000000e+00  1.00000000e+00  6.00000000e+00  1.00000000e+00  1.00000000e+00
  1.00000000e+00  1.00000000e+00
Current cartesian coordinates              R   N=          81
 -6.12279947e-01 -1.55845056e+00 -7.26437428e-01  2.57165405e+00  1.08890498e+00
  2.00706508e+00  1.39401898e+00  2.25022696e-01 -2.17316887e-01  4.52121951e+00
  2.84287360e+00  1.82638070e+00  5.33067525e+00  3.76284494e+00 -5.44426369e-01
 -8.77985523e-01 -1.62478871e+00 -3.30867335e+00  8.26059010e-01  1.23947067e-02
 -4.43654398e+00  2.25221227e+00  1.17133615e+00 -2.58448453e+00  4.21143707e+00
  2.93926922e+00 -2.77784797e+00  6.85768614e+00  5.13403254e+00 -6.27976816e-01
  4.84304903e+00  3.64288069e+00 -4.60268782e+00  1.97309320e+00  3.89406165e-01
  3.84391055e+00  1.02316383e+00  2.75097810e-01 -6.31400951e+00 -2.16128266e+00
 -2.73007378e+00 -4.45568093e+00 -2.09796813e+00 -3.03630029e+00  1.18927569e+00
 -4.01066866e+00 -1.47167154e+00  2.75049467e+00 -8.12220537e-01 -3.95043541e+00
  2.53616504e+00 -3.12759814e+00 -4.56790966e+00  2.29982398e-01 -4.94211866e+00
 -3.08108151e+00  4.82388338e+00  5.44271553e+00  3.51829491e+00  3.53333667e+00
 -5.94767057e+00 -4.56666237e+00  4.11381290e+00 -6.15253326e+00 -2.09336464e+00
  5.95050150e+00 -6.11416035e+00 -3.36470789e-01  1.10152611e+00 -2.97720775e+00
  8.62531184e-02  3.65053739e+00 -7.20427790e+00 -1.83978132e+00  1.69178260e-01
 -5.34381682e+00  9.02967104e-01 -3.69220742e-01 -7.42901618e+00  7.78792502e-01
  2.25397967e+00
Integer atomic weights                     I   N=          27
          12          12          12          12          12          12
          14          12          12           1           1           1
           1           1          12          12           1           1
          14           1           1           1          12           1
           1           1           1
Real atomic weights                        R   N=          27
  1.20000000e+01  1.20000000e+01  1.20000000e+01  1.20000000e+01  1.20000000e+01
  1.20000000e+01  1.40030740e+01  1.20000000e+01  1.20000000e+01  1.00782503e+00
  1.00782503e+00  1.00782503e+00  1.00782503e+00  1.00782503e+00  1.20000000e+01
  1.20000000e+01  1.00782503e+00  1.00782503e+00  1.40030740e+01  1.00782503e+00
  1.00782503e+00  1.00782503e+00  1.20000000e+01  1.00782503e+00  1.00782503e+00
  1.00782503e+00  1.00782503e+00
Number of primitive shells                 I              277
Number of contracted shells                I              132
Pure/Cartesian d shells                    I                1
Pure/Cartesian f shells                    I                1
Highest angular momentum                   I                2
Largest degree of contraction              I                6
Shell types                                I   N=         132
           0           0           1           0           1           2
           0           1           0           0           1           0
           1           2           0           1           0           0
           1           0           1           2           0           1
           0           0           1           0           1           2
           0           1           0           0           1           0
           1           2           0           1           0           0
           1           0           1           2           0           1
           0           0           1           0           1           2
           0           1           0           0           1           0
           1           2           0           1           0           0
           1           0           1           2           0           1
           0           0           0           0           0           0
           0           0           0           0           0           0
           1           0           1           2           0           1
           0           0           1           0           1           2
           0           1           0           0           0           0
           0           0           1           0           1           2
           0           1           0           0           0           0
           0           0           0           0           1           0
           1           2           0           1           0           0
           0           0           0           0           0           0
Number of primitives per shell             I   N=         132
           6           3           3           1           1           1
           1           1           6           3           3           1
           1           1           1           1           6           3
           3           1           1           1           1           1
           6           3           3           1           1           1
           1           1           6           3           3           1
           1           1           1           1           6           3
           3           1           1           1           1           1
           6           3           3           1           1           1
           1           1           6           3           3           1
           1           1           1           1           6           3
           3           1           1           1           1           1
           3           1           3           1           3           1
           3           1           3           1           6           3
           3           1           1           1           1           1
           6           3           3           1           1           1
           1           1           3           1           3           1
           6           3           3           1           1           1
           1           1           3           1           3           1
           3           1           6           3           3           1
           1           1           1           1           3           1
           3           1           3           1           3           1
Shell to atom map                          I   N=         132
           1           1           1           1           1           1
           1           1           2           2           2           2
           2           2           2           2           3           3
           3           3           3           3           3           3
           4           4           4           4           4           4
           4           4           5           5           5           5
           5           5           5           5           6           6
           6           6           6           6           6           6
           7           7           7           7           7           7
           7           7           8           8           8           8
           8           8           8           8           9           9
           9           9           9           9           9           9
          10          10          11          11          12          12
          13          13          14          14          15          15
          15          15          15          15          15          15
          16          16          16          16          16          16
          16          16          17          17          18          18
          19          19          19          19          19          19
          19          19          20          20          21          21
          22          22          23          23          23          23
          23          23          23          23          24          24
          25          25          26          26          27          27
Primitive exponents                        R   N=         277
  3.04752490e+03  4.57369510e+02  1.03948690e+02  2.92101550e+01  9.28666300e+00
  3.16392700e+00  7.86827240e+00  1.88128850e+00  5.44249300e-01  7.86827240e+00
  1.88128850e+00  5.44249300e-01  1.68714400e-01  1.68714400e-01  8.00000000e-01
  4.38000000e-02  4.38000000e-02  3.04752490e+03  4.57369510e+02  1.03948690e+02
  2.92101550e+01  9.28666300e+00  3.16392700e+00  7.86827240e+00  1.88128850e+00
  5.44249300e-01  7.86827240e+00  1.88128850e+00  5.44249300e-01  1.68714400e-01
  1.68714400e-01  8.00000000e-01  4.38000000e-02  4.38000000e-02  3.04752490e+03
  4.57369510e+02  1.03948690e+02  2.92101550e+01  9.28666300e+00  3.16392700e+00
  7.86827240e+00  1.88128850e+00  5.44249300e-01  7.86827240e+00  1.88128850e+00
  5.44249300e-01  1.68714400e-01  1.68714400e-01  8.00000000e-01  4.38000000e-02
  4.38000000e-02  3.04752490e+03  4.57369510e+02  1.03948690e+02  2.92101550e+01
  9.28666300e+00  3.16392700e+00  7.86827240e+00  1.88128850e+00  5.44249300e-01
  7.86827240e+00  1.88128850e+00  5.44249300e-01  1.68714400e-01  1.68714400e-01
  8.00000000e-01  4.38000000e-02  4.38000000e-02  3.04752490e+03  4.57369510e+02
  1.03948690e+02  2.92101550e+01  9.28666300e+00  3.16392700e+00  7.86827240e+00
  1.88128850e+00  5.44249300e-01  7.86827240e+00  1.88128850e+00  5.44249300e-01
  1.68714400e-01  1.68714400e-01  8.00000000e-01  4.38000000e-02  4.38000000e-02
  3.04752490e+03  4.57369510e+02  1.03948690e+02  2.92101550e+01  9.28666300e+00
  3.16392700e+00  7.86827240e+00  1.88128850e+00  5.44249300e-01  7.86827240e+00
  1.88128850e+00  5.44249300e-01  1.68714400e-01  1.68714400e-01  8.00000000e-01
  4.38000000e-02  4.38000000e-02  4.17351100e+03  6.27457900e+02  1.42902100e+02
  4.02343300e+01  1.28202100e+01  4.39043700e+00  1.16263580e+01  2.71628000e+00
  7.72218000e-01  1.16263580e+01  2.71628000e+00  7.72218000e-01  2.12031300e-01
  2.12031300e-01  8.00000000e-01  6.39000000e-02  6.39000000e-02  3.04752490e+03
  4.57369510e+02  1.03948690e+02  2.92101550e+01  9.28666300e+00  3.16392700e+00
  7.86827240e+00  1.88128850e+00  5.44249300e-01  7.86827240e+00  1.88128850e+00
  5.44249300e-01  1.68714400e-01  1.68714400e-01  8.00000000e-01  4.38000000e-02
  4.38000000e-02  3.04752490e+03  4.57369510e+02  1.03948690e+02  2.92101550e+01
  9.28666300e+00  3.16392700e+00  7.86827240e+00  1.88128850e+00  5.44249300e-01
  7.86827240e+00  1.88128850e+00  5.44249300e-01  1.68714400e-01  1.68714400e-01
  8.00000000e-01  4.38000000e-02  4.38000000e-02  1.87311370e+01  2.82539370e+00
  6.40121700e-01  1.61277800e-01  1.87311370e+01  2.82539370e+00  6.40121700e-01
  1.61277800e-01  1.87311370e+01  2.82539370e+00  6.40121700e-01  1.61277800e-01
  1.87311370e+01  2.82539370e+00  6.40121700e-01  1.61277800e-01  1.87311370e+01
  2.82539370e+00  6.40121700e-01  1.61277800e-01  3.04752490e+03  4.57369510e+02
  1.03948690e+02  2.92101550e+01  9.28666300e+00  3.16392700e+00  7.86827240e+00
  1.88128850e+00  5.44249300e-01  7.86827240e+00  1.88128850e+00  5.44249300e-01
  1.68714400e-01  1.68714400e-01  8.00000000e-01  4.38000000e-02  4.38000000e-02
  3.04752490e+03  4.57369510e+02  1.03948690e+02  2.92101550e+01  9.28666300e+00
  3.16392700e+00  7.86827240e+00  1.88128850e+00  5.44249300e-01  7.86827240e+00
  1.88128850e+00  5.44249300e-01  1.68714400e-01  1.68714400e-01  8.00000000e-01
  4.38000000e-02  4.38000000e-02  1.87311370e+01  2.82539370e+00  6.40121700e-01
  1.61277800e-01  1.87311370e+01  2.82539370e+00  6.40121700e-01  1.61277800e-01
  4.17351100e+03  6.27457900e+02  1.42902100e+02  4.02343300e+01  1.28202100e+01
  4.39043700e+00  1.16263580e+01  2.71628000e+00  7.72218000e-01  1.16263580e+01
  2.71628000e+00  7.72218000e-01  2.12031300e-01  2.12031300e-01  8.00000000e-01
  6.39000000e-02  6.39000000e-02  1.87311370e+01  2.82539370e+00  6.40121700e-01
  1.61277800e-01  1.87311370e+01  2.82539370e+00  6.40121700e-01  1.61277800e-01
  1.87311370e+01  2.82539370e+00  6.40121700e-01  1.61277800e-01  3.04752490e+03
  4.57369510e+02  1.03948690e+02  2.92101550e+01  9.28666300e+00  3.16392700e+00
  7.86827240e+00  1.88128850e+00  5.44249300e-01  7.86827240e+00  1.88128850e+00
  5.44249300e-01  1.68714400e-01  1.68714400e-01  8.00000000e-01  4.38000000e-02
  4.38000000e-02  1.87311370e+01  2.82539370e+00  6.40121700e-01  1.61277800e-01
  1.87311370e+01  2.82539370e+00  6.40121700e-01  1.61277800e-01  1.87311370e+01
  2.82539370e+00  6.40121700e-01  1.61277800e-01  1.87311370e+01  2.82539370e+00
  6.40121700e-01  1.61277800e-01
Contraction coefficients                   R   N=         277
  1.83470016e-03  1.40373012e-02  6.88426061e-02  2.32184421e-01  4.67941342e-01
  3.62312032e-01 -1.19332409e-01 -1.60854212e-01  1.14345648e+00  6.89990956e-02
  3.16423980e-01  7.44308252e-01  1.00000000e+00  1.00000000e+00  1.00000000e+00
  1.00000000e+00  1.00000000e+00  1.83470016e-03  1.40373012e-02  6.88426061e-02
  2.32184421e-01  4.67941342e-01  3.62312032e-01 -1.19332409e-01 -1.60854212e-01
  1.14345648e+00  6.89990956e-02  3.16423980e-01  7.44308252e-01  1.00000000e+00
  1.00000000e+00  1.00000000e+00  1.00000000e+00  1.00000000e+00  1.83470016e-03
  1.40373012e-02  6.88426061e-02  2.32184421e-01  4.67941342e-01  3.62312032e-01
 -1.19332409e-01 -1.60854212e-01  1.14345648e+00  6.89990956e-02  3.16423980e-01
  7.44308252e-01  1.00000000e+00  1.00000000e+00  1.00000000e+00  1.00000000e+00
  1.00000000e+00  1.83470016e-03  1.40373012e-02  6.88426061e-02  2.32184421e-01
  4.67941342e-01  3.62312032e-01 -1.19332409e-01 -1.60854212e-01  1.14345648e+00
  6.89990956e-02  3.16423980e-01  7.44308252e-01  1.00000000e+00  1.00000000e+00
  1.00000000e+00  1.00000000e+00  1.00000000e+00  1.83470016e-03  1.40373012e-02
  6.88426061e-02  2.32184421e-01  4.67941342e-01  3.62312032e-01 -1.19332409e-01
 -1.60854212e-01  1.14345648e+00  6.89990956e-02  3.16423980e-01  7.44308252e-01
  1.00000000e+00  1.00000000e+00  1.00000000e+00  1.00000000e+00  1.00000000e+00
  1.83470016e-03  1.40373012e-02  6.88426061e-02  2.32184421e-01  4.67941342e-01
  3.62312032e-01 -1.19332409e-01 -1.60854212e-01  1.14345648e+00  6.89990956e-02
  3.16423980e-01  7.44308252e-01  1.00000000e+00  1.00000000e+00  1.00000000e+00
  1.00000000e+00  1.00000000e+00  1.83479944e-03  1.39949958e-02  6.85869792e-02
  2.32240930e-01  4.69069858e-01  3.60454891e-01 -1.14961023e-01 -1.69118034e-01
  1.14585223e+00  6.75800232e-02  3.23907111e-01  7.40895255e-01  1.00000000e+00
  1.00000000e+00  1.00000000e+00  1.00000000e+00  1.00000000e+00  1.83470016e-03
  1.40373012e-02  6.88426061e-02  2.32184421e-01  4.67941342e-01  3.62312032e-01
 -1.19332409e-01 -1.60854212e-01  1.14345648e+00  6.89990956e-02  3.16423980e-01
  7.44308252e-01  1.00000000e+00  1.00000000e+00  1.00000000e+00  1.00000000e+00
  1.00000000e+00  1.83470016e-03  1.40373012e-02  6.88426061e-02  2.32184421e-01
  4.67941342e-01  3.62312032e-01 -1.19332409e-01 -1.60854212e-01  1.14345648e+00
  6.89990956e-02  3.16423980e-01  7.44308252e-01  1.00000000e+00  1.00000000e+00
  1.00000000e+00  1.00000000e+00  1.00000000e+00  3.34945995e-02  2.34726947e-01
  8.13757318e-01  1.00000000e+00  3.34945995e-02  2.34726947e-01  8.13757318e-01
  1.00000000e+00  3.34945995e-02  2.34726947e-01  8.13757318e-01  1.00000000e+00
  3.34945995e-02  2.34726947e-01  8.13757318e-01  1.00000000e+00  3.34945995e-02
  2.34726947e-01  8.13757318e-01  1.00000000e+00  1.83470016e-03  1.40373012e-02
  6.88426061e-02  2.32184421e-01  4.67941342e-01  3.62312032e-01 -1.19332409e-01
 -1.60854212e-01  1.14345648e+00  6.89990956e-02  3.16423980e-01  7.44308252e-01
  1.00000000e+00  1.00000000e+00  1.00000000e+00  1.00000000e+00  1.00000000e+00
  1.83470016e-03  1.40373012e-02  6.88426061e-02  2.32184421e-01  4.67941342e-01
  3.62312032e-01 -1.19332409e-01 -1.60854212e-01  1.14345648e+00  6.89990956e-02
  3.16423980e-01  7.44308252e-01  1.00000000e+00  1.00000000e+00  1.00000000e+00
  1.00000000e+00  1.00000000e+00  3.34945995e-02  2.34726947e-01  8.13757318e-01
  1.00000000e+00  3.34945995e-02  2.34726947e-01  8.13757318e-01  1.00000000e+00
  1.83479944e-03  1.39949958e-02  6.85869792e-02  2.32240930e-01  4.69069858e-01
  3.60454891e-01 -1.14961023e-01 -1.69118034e-01  1.14585223e+00  6.75800232e-02
  3.23907111e-01  7.40895255e-01  1.00000000e+00  1.00000000e+00  1.00000000e+00
  1.00000000e+00  1.00000000e+00  3.34945995e-02  2.34726947e-01  8.13757318e-01
  1.00000000e+00  3.34945995e-02  2.34726947e-01  8.13757318e-01  1.00000000e+00
  3.34945995e-02  2.34726947e-01  8.13757318e-01  1.00000000e+00  1.83470016e-03
  1.40373012e-02  6.88426061e-02  2.32184421e-01  4.67941342e-01  3.62312032e-01
 -1.19332409e-01 -1.60854212e-01  1.14345648e+00  6.89990956e-02  3.16423980e-01
  7.44308252e-01  1.00000000e+00  1.00000000e+00  1.00000000e+00  1.00000000e+00
  1.00000000e+00  3.34945995e-02  2.34726947e-01  8.13757318e-01  1.00000000e+00
  3.34945995e-02  2.34726947e-01  8.13757318e-01  1.00000000e+00  3.34945995e-02
  2.34726947e-01  8.13757318e-01  1.00000000e+00  3.34945995e-02  2.34726947e-01
  8.13757318e-01  1.00000000e+00
Coordinates of each shell                  R   N=         396
 -6.12279947e-01 -1.55845056e+00 -7.26437428e-01 -6.12279947e-01 -1.55845056e+00
 -7.26437428e-01 -6.12279947e-01 -1.55845056e+00 -7.26437428e-01 -6.12279947e-01
 -1.55845056e+00 -7.26437428e-01 -6.12279947e-01 -1.55845056e+00 -7.26437428e-01
 -6.12279947e-01 -1.55845056e+00 -7.26437428e-01 -6.12279947e-01 -1.55845056e+00
 -7.26437428e-01 -6.12279947e-01 -1.55845056e+00 -7.26437428e-01  2.57165405e+00
  1.08890498e+00  2.00706508e+00  2.57165405e+00  1.08890498e+00  2.00706508e+00
  2.57165405e+00  1.08890498e+00  2.00706508e+00  2.57165405e+00  1.08890498e+00
  2.00706508e+00  2.57165405e+00  1.08890498e+00  2.00706508e+00  2.57165405e+00
  1.08890498e+00  2.00706508e+00  2.57165405e+00  1.08890498e+00  2.00706508e+00
  2.57165405e+00  1.08890498e+00  2.00706508e+00  1.39401898e+00  2.25022696e-01
 -2.17316887e-01  1.39401898e+00  2.25022696e-01 -2.17316887e-01  1.39401898e+00
  2.25022696e-01 -2.17316887e-01  1.39401898e+00  2.25022696e-01 -2.17316887e-01
  1.39401898e+00  2.25022696e-01 -2.17316887e-01  1.39401898e+00  2.25022696e-01
 -2.17316887e-01  1.39401898e+00  2.25022696e-01 -2.17316887e-01  1.39401898e+00
  2.25022696e-01 -2.17316887e-01  4.52121951e+00  2.84287360e+00  1.82638070e+00
  4.52121951e+00  2.84287360e+00  1.82638070e+00  4.52121951e+00  2.84287360e+00
  1.82638070e+00  4.52121951e+00  2.84287360e+00  1.82638070e+00  4.52121951e+00
  2.84287360e+00  1.82638070e+00  4.52121951e+00  2.84287360e+00  1.82638070e+00
  4.52121951e+00  2.84287360e+00  1.82638070e+00  4.52121951e+00  2.84287360e+00
  1.82638070e+00  5.33067525e+00  3.76284494e+00 -5.44426369e-01  5.33067525e+00
  3.76284494e+00 -5.44426369e-01  5.33067525e+00  3.76284494e+00 -5.44426369e-01
  5.33067525e+00  3.76284494e+00 -5.44426369e-01  5.33067525e+00  3.76284494e+00
 -5.44426369e-01  5.33067525e+00  3.76284494e+00 -5.44426369e-01  5.33067525e+00
  3.76284494e+00 -5.44426369e-01  5.33067525e+00  3.76284494e+00 -5.44426369e-01
 -8.77985523e-01 -1.62478871e+00 -3.30867335e+00 -8.77985523e-01 -1.62478871e+00
 -3.30867335e+00 -8.77985523e-01 -1.62478871e+00 -3.30867335e+00 -8.77985523e-01
 -1.62478871e+00 -3.30867335e+00 -8.77985523e-01 -1.62478871e+00 -3.30867335e+00
 -8.77985523e-01 -1.62478871e+00 -3.30867335e+00 -8.77985523e-01 -1.62478871e+00
 -3.30867335e+00 -8.77985523e-01 -1.62478871e+00 -3.30867335e+00  8.26059010e-01
  1.23947067e-02 -4.43654398e+00  8.26059010e-01  1.23947067e-02 -4.43654398e+00
  8.26059010e-01  1.23947067e-02 -4.43654398e+00  8.26059010e-01  1.23947067e-02
 -4.43654398e+00  8.26059010e-01  1.23947067e-02 -4.43654398e+00  8.26059010e-01
  1.23947067e-02 -4.43654398e+00  8.26059010e-01  1.23947067e-02 -4.43654398e+00
  8.26059010e-01  1.23947067e-02 -4.43654398e+00  2.25221227e+00  1.17133615e+00
 -2.58448453e+00  2.25221227e+00  1.17133615e+00 -2.58448453e+00  2.25221227e+00
  1.17133615e+00 -2.58448453e+00  2.25221227e+00  1.17133615e+00 -2.58448453e+00
  2.25221227e+00  1.17133615e+00 -2.58448453e+00  2.25221227e+00  1.17133615e+00
 -2.58448453e+00  2.25221227e+00  1.17133615e+00 -2.58448453e+00  2.25221227e+00
  1.17133615e+00 -2.58448453e+00  4.21143707e+00  2.93926922e+00 -2.77784797e+00
  4.21143707e+00  2.93926922e+00 -2.77784797e+00  4.21143707e+00  2.93926922e+00
 -2.77784797e+00  4.21143707e+00  2.93926922e+00 -2.77784797e+00  4.21143707e+00
  2.93926922e+00 -2.77784797e+00  4.21143707e+00  2.93926922e+00 -2.77784797e+00
  4.21143707e+00  2.93926922e+00 -2.77784797e+00  4.21143707e+00  2.93926922e+00
 -2.77784797e+00  6.85768614e+00  5.13403254e+00 -6.27976816e-01  6.85768614e+00
  5.13403254e+00 -6.27976816e-01  4.84304903e+00  3.64288069e+00 -4.60268782e+00
  4.84304903e+00  3.64288069e+00 -4.60268782e+00  1.97309320e+00  3.89406165e-01
  3.84391055e+00  1.97309320e+00  3.89406165e-01  3.84391055e+00  1.02316383e+00
  2.75097810e-01 -6.31400951e+00  1.02316383e+00  2.75097810e-01 -6.31400951e+00
 -2.16128266e+00 -2.73007378e+00 -4.45568093e+00 -2.16128266e+00 -2.73007378e+00
 -4.45568093e+00 -2.09796813e+00 -3.03630029e+00  1.18927569e+00 -2.09796813e+00
 -3.03630029e+00  1.18927569e+00 -2.09796813e+00 -3.03630029e+00  1.18927569e+00
 -2.09796813e+00 -3.03630029e+00  1.18927569e+00 -2.09796813e+00 -3.03630029e+00
  1.18927569e+00 -2.09796813e+00 -3.03630029e+00  1.18927569e+00 -2.09796813e+00
 -3.03630029e+00  1.18927569e+00 -2.09796813e+00 -3.03630029e+00  1.18927569e+00
 -4.01066866e+00 -1.47167154e+00  2.75049467e+00 -4.01066866e+00 -1.47167154e+00
  2.75049467e+00 -4.01066866e+00 -1.47167154e+00  2.75049467e+00 -4.01066866e+00
 -1.47167154e+00  2.75049467e+00 -4.01066866e+00 -1.47167154e+00  2.75049467e+00
 -4.01066866e+00 -1.47167154e+00  2.75049467e+00 -4.01066866e+00 -1.47167154e+00
  2.75049467e+00 -4.01066866e+00 -1.47167154e+00  2.75049467e+00 -8.12220537e-01
 -3.95043541e+00  2.53616504e+00 -8.12220537e-01 -3.95043541e+00  2.53616504e+00
 -3.12759814e+00 -4.56790966e+00  2.29982398e-01 -3.12759814e+00 -4.56790966e+00
  2.29982398e-01 -4.94211866e+00 -3.08108151e+00  4.82388338e+00 -4.94211866e+00
 -3.08108151e+00  4.82388338e+00 -4.94211866e+00 -3.08108151e+00  4.82388338e+00
 -4.94211866e+00 -3.08108151e+00  4.82388338e+00 -4.94211866e+00 -3.08108151e+00
  4.82388338e+00 -4.94211866e+00 -3.08108151e+00  4.82388338e+00 -4.94211866e+00
 -3.08108151e+00  4.82388338e+00 -4.94211866e+00 -3.08108151e+00  4.82388338e+00
  5.44271553e+00  3.51829491e+00  3.53333667e+00  5.44271553e+00  3.51829491e+00
  3.53333667e+00 -5.94767057e+00 -4.56666237e+00  4.11381290e+00 -5.94767057e+00
 -4.56666237e+00  4.11381290e+00 -6.15253326e+00 -2.09336464e+00  5.95050150e+00
 -6.15253326e+00 -2.09336464e+00  5.95050150e+00 -6.11416035e+00 -3.36470789e-01
  1.10152611e+00 -6.11416035e+00 -3.36470789e-01  1.10152611e+00 -6.11416035e+00
 -3.36470789e-01  1.10152611e+00 -6.11416035e+00 -3.36470789e-01  1.10152611e+00
 -6.11416035e+00 -3.36470789e-01  1.10152611e+00 -6.11416035e+00 -3.36470789e-01
  1.10152611e+00 -6.11416035e+00 -3.36470789e-01  1.10152611e+00 -6.11416035e+00
 -3.36470789e-01  1.10152611e+00 -2.97720775e+00  8.62531184e-02  3.65053739e+00
 -2.97720775e+00  8.62531184e-02  3.65053739e+00 -7.20427790e+00 -1.83978132e+00
  1.69178260e-01 -7.20427790e+00 -1.83978132e+00  1.69178260e-01 -5.34381682e+00
  9.02967104e-01 -3.69220742e-01 -5.34381682e+00  9.02967104e-01 -3.69220742e-01
 -7.42901618e+00  7.78792502e-01  2.25397967e+00 -7.42901618e+00  7.78792502e-01
  2.25397967e+00
Total Energy                               R     -5.371278416131257e+02
Alpha Orbital Energies                     R   N=         275
 -1.43848131e+01 -1.43194772e+01 -1.02228634e+01 -1.02216635e+01 -1.02160949e+01
 -1.01936642e+01 -1.01885987e+01 -1.01882455e+01 -1.01869503e+01 -1.01863479e+01
 -1.01851095e+01 -1.01834966e+01 -1.01749827e+01 -9.81989915e-01 -8.87720332e-01
 -8.40250566e-01 -8.00490251e-01 -7.47210973e-01 -7.36542226e-01 -7.19654680e-01
 -6.88065122e-01 -6.25039986e-01 -5.95659369e-01 -5.94058736e-01 -5.57410825e-01
 -5.38203627e-01 -4.91112032e-01 -4.85830264e-01 -4.72994652e-01 -4.53931050e-01
 -4.43029844e-01 -4.31010458e-01 -4.26272617e-01 -4.21150601e-01 -4.06337274e-01
 -4.05306595e-01 -3.81919966e-01 -3.70068934e-01 -3.57352788e-01 -3.48914221e-01
 -3.40376226e-01 -3.35127535e-01 -3.27903316e-01 -2.74338832e-01 -2.40324282e-01
 -2.25656955e-01 -2.05175850e-01 -1.99815952e-02 -4.73488988e-03  3.94031962e-03
  1.46110341e-02  1.64045401e-02  2.35935665e-02  2.94209804e-02  3.13944354e-02
  4.05417713e-02  4.67677987e-02  5.40860095e-02  5.47615392e-02  6.09728773e-02
  6.39842630e-02  7.70405715e-02  8.00575198e-02  8.42674892e-02  8.70654059e-02
  9.44855202e-02  9.95674362e-02  1.06877172e-01  1.13669013e-01  1.17613248e-01
  1.25662119e-01  1.29222913e-01  1.33469919e-01  1.38938654e-01  1.45374082e-01
  1.50444706e-01  1.56575708e-01  1.59741293e-01  1.62650781e-01  1.67720802e-01
  1.74015395e-01  1.77886689e-01  1.81162407e-01  1.85710888e-01  1.94741753e-01
  1.96688626e-01  2.00007747e-01  2.05390158e-01  2.06575220e-01  2.13631530e-01
  2.16669494e-01  2.18073523e-01  2.21591832e-01  2.24462090e-01  2.28292038e-01
  2.35521843e-01  2.41053833e-01  2.42156778e-01  2.48585207e-01  2.55099220e-01
  2.59158941e-01  2.61758593e-01  2.65364519e-01  2.73451162e-01  2.79043797e-01
  2.84307092e-01  2.87946829e-01  2.90163104e-01  3.00026998e-01  3.05110689e-01
  3.06932605e-01  3.09522975e-01  3.27161204e-01  3.31752472e-01  3.33789707e-01
  3.38551382e-01  3.43392986e-01  3.56873537e-01  3.61152683e-01  3.69518081e-01
  3.80863234e-01  3.89037346e-01  4.01669246e-01  4.10561678e-01  4.26562185e-01
  4.56334778e-01  4.68766790e-01  4.79938243e-01  5.23850562e-01  5.85925552e-01
  6.22727518e-01  6.51471918e-01  6.69748978e-01  6.79925968e-01  6.86052558e-01
  6.96429911e-01  7.04021584e-01  7.22657661e-01  7.31779577e-01  7.34600055e-01
  7.39209250e-01  7.48298531e-01  7.52962876e-01  7.70208870e-01  7.74941589e-01
  7.78243228e-01  7.91154248e-01  7.97968507e-01  8.03974425e-01  8.19403724e-01
  8.27700420e-01  8.59280281e-01  8.81108048e-01  8.97278858e-01  9.02109349e-01
  9.16183614e-01  9.19469963e-01  9.42977062e-01  9.51903835e-01  9.62009297e-01
  9.74546443e-01  9.77607395e-01  9.85468452e-01  9.97060365e-01  1.01026538e+00
  1.02212943e+00  1.02905274e+00  1.04474293e+00  1.05627830e+00  1.06530297e+00
  1.08616571e+00  1.09299629e+00  1.09947791e+00  1.12744577e+00  1.13641115e+00
  1.13880255e+00  1.15015345e+00  1.16746514e+00  1.18296292e+00  1.19587328e+00
  1.21683131e+00  1.22393856e+00  1.24918267e+00  1.26139027e+00  1.27825993e+00
  1.29677202e+00  1.32811396e+00  1.33592172e+00  1.35661892e+00  1.36599470e+00
  1.39665421e+00  1.40186087e+00  1.42476689e+00  1.43173344e+00  1.45720887e+00
  1.48304406e+00  1.49952661e+00  1.50254212e+00  1.50747566e+00  1.52905817e+00
  1.56159834e+00  1.57708346e+00  1.63102284e+00  1.66780809e+00  1.68930403e+00
  1.74210121e+00  1.77891788e+00  1.81222679e+00  1.81751694e+00  1.86026054e+00
  1.87463311e+00  1.89202974e+00  1.91817947e+00  1.93533991e+00  1.93963777e+00
  1.96634732e+00  1.99630863e+00  2.01541249e+00  2.01808276e+00  2.02861048e+00
  2.06330794e+00  2.08372958e+00  2.09707791e+00  2.11540268e+00  2.11687800e+00
  2.14226943e+00  2.17177142e+00  2.17454279e+00  2.19494983e+00  2.21201840e+00
  2.23194720e+00  2.25372872e+00  2.25996112e+00  2.28950117e+00  2.29923686e+00
  2.31000105e+00  2.34160540e+00  2.39143925e+00  2.40181728e+00  2.44509812e+00
  2.47419152e+00  2.49752772e+00  2.53799632e+00  2.55127907e+00  2.57017825e+00
  2.60699883e+00  2.64737630e+00  2.66874959e+00  2.67676554e+00  2.69786397e+00
  2.71262548e+00  2.75830774e+00  2.76365429e+00  2.83018855e+00  2.85075635e+00
  2.87416031e+00  2.91193371e+00  2.98238209e+00  3.01383310e+00  3.16316050e+00
  3.25538746e+00  3.44001938e+00  3.98346556e+00  4.19154220e+00  4.25731617e+00
  4.26515593e+00  4.29868001e+00  4.34646868e+00  4.37948146e+00  4.41723284e+00
  4.45628291e+00  4.50667121e+00  4.60141658e+00  4.62720386e+00  4.81255205e+00
Alpha MO coefficients                      R   N=       75625
  2.35495088e-07  6.33988533e-05  8.79452903e-06  8.62228466e-06  4.66923685e-05
 -3.39347560e-04 -6.54287476e-05 -1.40816021e-04  9.60492066e-04 -1.44211907e-05
 -1.54442314e-05 -9.70600715e-05 -4.03952202e-06  2.34612038e-05  2.77443345e-05
  4.10150730e-03  2.62167235e-03  3.10677037e-03 -4.25938105e-03  1.22423716e-06
  9.47478660e-06 -9.05106605e-06 -9.19853896e-06  1.94526136e-05 -8.06381152e-04
  5.52949220e-05  1.79023810e-05  3.50681659e-04  4.20702256e-06  1.50801446e-06
 -3.97405086e-06  6.58074921e-06  8.70303160e-06  7.41715703e-06 -9.09766225e-04
 -2.96604419e-04 -2.09806859e-04 -1.37976970e-04 -1.58837768e-05 -2.02112915e-05