Generated by Psi4
     FORCE                           RHF                       TESTBAS
Number of atoms                            I               32
Charge                                     I                0
Multiplicity                               I                1
Number of electrons                        I              110
Number of alpha electrons                  I               55
Number of beta electrons                   I               55
Number of basis functions                  I              319
Number of independent functions            I              319
Atomic numbers                             I   N=          32
           6           6           6           7           6           6
           6           6           6           1           1           6
           1           6           8           1           6           1
           1           6           6           1           1           1
           1           1           1           1           1           1
           1           1
Nuclear charges                            R   N=          32
  6.00000000e+00  6.00000000e+00  6.00000000e+00  7.00000000e+00  6.00000000e+00
  6.00000000e+00  6.00000000e+00  6.00000000e+00  6.00000000e+00  1.00000000e+00
  1.00000000e+00  6.00000000e+00  1.00000000e+00  6.00000000e+00  8.00000000e+00
  1.00000000e+00  6.00000000e+00  1.00000000e+00  1.00000000e+00  6.00000000e+00
  6.00000000e+00  1.00000000e+00  1.00000000e+00  1.00000000e+00  1.00000000e+00
  1.00000000e+00  1.00000000e+00  1.00000000e+00  1.00000000e+00  1.00000000e+00
  1.00000000e+00  1.00000000e+00
Current cartesian coordinates              R   N=          96
  9.04974991e-01 -3.12662422e-01 -2.66103964e+00 -1.32468020e+00  1.29240894e+00
 -1.94706392e+00 -1.50555590e+00  2.63689977e+00  6.39564746e-01 -1.26858500e+00
  8.96415632e-01  2.78084476e+00  2.76991416e+00 -1.08601552e+00 -9.33619625e-01
  4.79828296e+00 -2.56963603e+00 -1.74211542e+00  4.99527332e+00 -3.28941134e+00
 -4.27479663e+00  3.14536144e+00 -2.52970925e+00 -6.00717753e+00  1.11540535e+00
 -1.05902391e+00 -5.20517797e+00  2.58566054e+00 -5.67029668e-01  1.04011345e+00
  6.22359968e+00 -3.16728134e+00 -3.88613278e-01  4.43111269e-01  4.79784904e+00
  7.36268001e-01 -3.41363526e+00  3.49267649e+00  6.21320544e-01 -3.16778948e+00
 -1.13582790e+00  2.76508670e+00 -3.00954188e+00  1.68488931e+00 -3.48667843e+00
 -3.36235021e-01 -4.57877480e-01 -6.52378181e+00 -2.94353520e+00 -2.32898219e+00
  5.40585031e+00 -2.79627364e+00 -2.47511966e+00  1.23183011e+00 -5.08686026e+00
 -3.52310667e-01  2.47013606e+00 -1.56840703e+00  2.08963843e+00  5.27230288e+00
 -1.91248562e+00 -1.55662289e-01  7.09530917e+00 -1.61985265e+00 -3.91892432e+00
  5.37325178e+00 -4.76561574e+00 -3.05438763e+00  6.06425084e+00 -1.01778177e-01
 -6.85270957e-01  7.94499400e+00 -3.20031674e+00  3.27432893e-01  8.64093160e+00
 -3.26171567e+00  3.32511176e+00  5.30498221e+00  7.21741405e-02  3.25588294e+00
  5.74218036e+00  3.29049652e+00 -3.08586684e+00 -7.97935324e+00  6.57926500e+00
 -4.43994487e+00 -4.89870036e+00  2.37504516e+00  4.07862072e+00  9.02791901e-01
  6.73654670e-02  6.05190117e+00  2.33794415e+00  3.15737043e-01  5.93838696e+00
 -9.86696770e-01
Integer atomic weights                     I   N=          32
          12          12          12          14          12          12
          12          12          12           1           1          12
           1          12          15           1          12           1
           1          12          12           1           1           1
           1           1           1           1           1           1
           1           1
Real atomic weights                        R   N=          32
  1.20000000e+01  1.20000000e+01  1.20000000e+01  1.40030740e+01  1.20000000e+01
  1.20000000e+01  1.20000000e+01  1.20000000e+01  1.20000000e+01  1.00782503e+00
  1.00782503e+00  1.20000000e+01  1.00782503e+00  1.20000000e+01  1.59949146e+01
  1.00782503e+00  1.20000000e+01  1.00782503e+00  1.00782503e+00  1.20000000e+01
  1.20000000e+01  1.00782503e+00  1.00782503e+00  1.00782503e+00  1.00782503e+00
  1.00782503e+00  1.00782503e+00  1.00782503e+00  1.00782503e+00  1.00782503e+00
  1.00782503e+00  1.00782503e+00
Number of primitive shells                 I              323
Number of contracted shells                I              154
Pure/Cartesian d shells                    I                1
Pure/Cartesian f shells                    I                1
Highest angular momentum                   I                2
Largest degree of contraction              I                6
Shell types                                I   N=         154
           0           0           1           0           1           2
           0           1           0           0           1           0
           1           2           0           1           0           0
           1           0           1           2           0           1
           0           0           1           0           1           2
           0           1           0           0           1           0
           1           2           0           1           0           0
           1           0           1           2           0           1
           0           0           1           0           1           2
           0           1           0           0           1           0
           1           2           0           1           0           0
           1           0           1           2           0           1
           0           0           0           0           0           0
           1           0           1           2           0           1
           0           0           0           0           1           0
           1           2           0           1           0           0
           1           0           1           2           0           1
           0           0           0           0           1           0
           1           2           0           1           0           0
           0           0           0           0           1           0
           1           2           0           1           0           0
           1           0           1           2           0           1
           0           0           0           0           0           0
           0           0           0           0           0           0
           0           0           0           0           0           0
           0           0           0           0
Number of primitives per shell             I   N=         154
           6           3           3           1           1           1
           1           1           6           3           3           1
           1           1           1           1           6           3
           3           1           1           1           1           1
           6           3           3           1           1           1
           1           1           6           3           3           1
           1           1           1           1           6           3
           3           1           1           1           1           1
           6           3           3           1           1           1
           1           1           6           3           3           1
           1           1           1           1           6           3
           3           1           1           1           1           1
           3           1           3           1           6           3
           3           1           1           1           1           1
           3           1           6           3           3           1
           1           1           1           1           6           3
           3           1           1           1           1           1
           3           1           6           3           3           1
           1           1           1           1           3           1
           3           1           6           3           3           1
           1           1           1           1           6           3
           3           1           1           1           1           1
           3           1           3           1           3           1
           3           1           3           1           3           1
           3           1           3           1           3           1
           3           1           3           1
Shell to atom map                          I   N=         154
           1           1           1           1           1           1
           1           1           2           2           2           2
           2           2           2           2           3           3
           3           3           3           3           3           3
           4           4           4           4           4           4
           4           4           5           5           5           5
           5           5           5           5           6           6
           6           6           6           6           6           6
           7           7           7           7           7           7
           7           7           8           8           8           8
           8           8           8           8           9           9
           9           9           9           9           9           9
          10          10          11          11          12          12
          12          12          12          12          12          12
          13          13          14          14          14          14
          14          14          14          14          15          15
          15          15          15          15          15          15
          16          16          17          17          17          17
          17          17          17          17          18          18
          19          19          20          20          20          20
          20          20          20          20          21          21
          21          21          21          21          21          21
          22          22          23          23          24          24
          25          25          26          26          27          27
          28          28          29          29          30          30
          31          31          32          32
Primitive exponents                        R   N=         323
  3.04752490e+03  4.57369510e+02  1.03948690e+02  2.92101550e+01  9.28666300e+00
  3.16392700e+00  7.86827240e+00  1.88128850e+00  5.44249300e-01  7.86827240e+00
  1.88128850e+00  5.44249300e-01  1.68714400e-01  1.68714400e-01  8.00000000e-01
  4.38000000e-02  4.38000000e-02  3.04752490e+03  4.57369510e+02  1.03948690e+02
  2.92101550e+01  9.28666300e+00  3.16392700e+00  7.86827240e+00  1.88128850e+00
  5.44249300e-01  7.86827240e+00  1.88128850e+00  5.44249300e-01  1.68714400e-01
  1.68714400e-01  8.00000000e-01  4.38000000e-02  4.38000000e-02  3.04752490e+03
  4.57369510e+02  1.03948690e+02  2.92101550e+01  9.28666300e+00  3.16392700e+00
  7.86827240e+00  1.88128850e+00  5.44249300e-01  7.86827240e+00  1.88128850e+00
  5.44249300e-01  1.68714400e-01  1.68714400e-01  8.00000000e-01  4.38000000e-02
  4.38000000e-02  4.17351100e+03  6.27457900e+02  1.42902100e+02  4.02343300e+01
  1.28202100e+01  4.39043700e+00  1.16263580e+01  2.71628000e+00  7.72218000e-01
  1.16263580e+01  2.71628000e+00  7.72218000e-01  2.12031300e-01  2.12031300e-01
  8.00000000e-01  6.39000000e-02  6.39000000e-02  3.04752490e+03  4.57369510e+02
  1.03948690e+02  2.92101550e+01  9.28666300e+00  3.16392700e+00  7.86827240e+00
  1.88128850e+00  5.44249300e-01  7.86827240e+00  1.88128850e+00  5.44249300e-01
  1.68714400e-01  1.68714400e-01  8.00000000e-01  4.38000000e-02  4.38000000e-02
  3.04752490e+03  4.57369510e+02  1.03948690e+02  2.92101550e+01  9.28666300e+00
  3.16392700e+00  7.86827240e+00  1.88128850e+00  5.44249300e-01  7.86827240e+00
  1.88128850e+00  5.44249300e-01  1.68714400e-01  1.68714400e-01  8.00000000e-01
  4.38000000e-02  4.38000000e-02  3.04752490e+03  4.57369510e+02  1.03948690e+02
  2.92101550e+01  9.28666300e+00  3.16392700e+00  7.86827240e+00  1.88128850e+00
  5.44249300e-01  7.86827240e+00  1.88128850e+00  5.44249300e-01  1.68714400e-01
  1.68714400e-01  8.00000000e-01  4.38000000e-02  4.38000000e-02  3.04752490e+03
  4.57369510e+02  1.03948690e+02  2.92101550e+01  9.28666300e+00  3.16392700e+00
  7.86827240e+00  1.88128850e+00  5.44249300e-01  7.86827240e+00  1.88128850e+00
  5.44249300e-01  1.68714400e-01  1.68714400e-01  8.00000000e-01  4.38000000e-02
  4.38000000e-02  3.04752490e+03  4.57369510e+02  1.03948690e+02  2.92101550e+01
  9.28666300e+00  3.16392700e+00  7.86827240e+00  1.88128850e+00  5.44249300e-01
  7.86827240e+00  1.88128850e+00  5.44249300e-01  1.68714400e-01  1.68714400e-01
  8.00000000e-01  4.38000000e-02  4.38000000e-02  1.87311370e+01  2.82539370e+00
  6.40121700e-01  1.61277800e-01  1.87311370e+01  2.82539370e+00  6.40121700e-01
  1.61277800e-01  3.04752490e+03  4.57369510e+02  1.03948690e+02  2.92101550e+01
  9.28666300e+00  3.16392700e+00  7.86827240e+00  1.88128850e+00  5.44249300e-01
  7.86827240e+00  1.88128850e+00  5.44249300e-01  1.68714400e-01  1.68714400e-01
  8.00000000e-01  4.38000000e-02  4.38000000e-02  1.87311370e+01  2.82539370e+00
  6.40121700e-01  1.61277800e-01  3.04752490e+03  4.57369510e+02  1.03948690e+02
  2.92101550e+01  9.28666300e+00  3.16392700e+00  7.86827240e+00  1.88128850e+00
  5.44249300e-01  7.86827240e+00  1.88128850e+00  5.44249300e-01  1.68714400e-01
  1.68714400e-01  8.00000000e-01  4.38000000e-02  4.38000000e-02  5.48467170e+03
  8.25234950e+02  1.88046960e+02  5.29645000e+01  1.68975700e+01  5.79963530e+00
  1.55396160e+01  3.59993360e+00  1.01376180e+00  1.55396160e+01  3.59993360e+00
  1.01376180e+00  2.70005800e-01  2.70005800e-01  8.00000000e-01  8.45000000e-02
  8.45000000e-02  1.87311370e+01  2.82539370e+00  6.40121700e-01  1.61277800e-01
  3.04752490e+03  4.57369510e+02  1.03948690e+02  2.92101550e+01  9.28666300e+00
  3.16392700e+00  7.86827240e+00  1.88128850e+00  5.44249300e-01  7.86827240e+00
  1.88128850e+00  5.44249300e-01  1.68714400e-01  1.68714400e-01  8.00000000e-01
  4.38000000e-02  4.38000000e-02  1.87311370e+01  2.82539370e+00  6.40121700e-01
  1.61277800e-01  1.87311370e+01  2.82539370e+00  6.40121700e-01  1.61277800e-01
  3.04752490e+03  4.57369510e+02  1.03948690e+02  2.92101550e+01  9.28666300e+00
  3.16392700e+00  7.86827240e+00  1.88128850e+00  5.44249300e-01  7.86827240e+00
  1.88128850e+00  5.44249300e-01  1.68714400e-01  1.68714400e-01  8.00000000e-01
  4.38000000e-02  4.38000000e-02  3.04752490e+03  4.57369510e+02  1.03948690e+02
  2.92101550e+01  9.28666300e+00  3.16392700e+00  7.86827240e+00  1.88128850e+00
  5.44249300e-01  7.86827240e+00  1.88128850e+00  5.44249300e-01  1.68714400e-01
  1.68714400e-01  8.00000000e-01  4.38000000e-02  4.38000000e-02  1.87311370e+01
  2.82539370e+00  6.40121700e-01  1.61277800e-01  1.87311370e+01  2.82539370e+00
  6.40121700e-01  1.61277800e-01  1.87311370e+01  2.82539370e+00  6.40121700e-01
  1.61277800e-01  1.87311370e+01  2.82539370e+00  6.40121700e-01  1.61277800e-01
  1.87311370e+01  2.82539370e+00  6.40121700e-01  1.61277800e-01  1.87311370e+01
  2.82539370e+00  6.40121700e-01  1.61277800e-01  1.87311370e+01  2.82539370e+00
  6.40121700e-01  1.61277800e-01  1.87311370e+01  2.82539370e+00  6.40121700e-01
  1.61277800e-01  1.87311370e+01  2.82539370e+00  6.40121700e-01  1.61277800e-01
  1.87311370e+01  2.82539370e+00  6.40121700e-01  1.61277800e-01  1.87311370e+01
  2.82539370e+00  6.40121700e-01  1.61277800e-01
Contraction coefficients                   R   N=         323
  1.83470016e-03  1.40373012e-02  6.88426061e-02  2.32184421e-01  4.67941342e-01
  3.62312032e-01 -1.19332409e-01 -1.60854212e-01  1.14345648e+00  6.89990956e-02
  3.16423980e-01  7.44308252e-01  1.00000000e+00  1.00000000e+00  1.00000000e+00
  1.00000000e+00  1.00000000e+00  1.83470016e-03  1.40373012e-02  6.88426061e-02
  2.32184421e-01  4.67941342e-01  3.62312032e-01 -1.19332409e-01 -1.60854212e-01
  1.14345648e+00  6.89990956e-02  3.16423980e-01  7.44308252e-01  1.00000000e+00
  1.00000000e+00  1.00000000e+00  1.00000000e+00  1.00000000e+00  1.83470016e-03
  1.40373012e-02  6.88426061e-02  2.32184421e-01  4.67941342e-01  3.62312032e-01
 -1.19332409e-01 -1.60854212e-01  1.14345648e+00  6.89990956e-02  3.16423980e-01
  7.44308252e-01  1.00000000e+00  1.00000000e+00  1.00000000e+00  1.00000000e+00
  1.00000000e+00  1.83479944e-03  1.39949958e-02  6.85869792e-02  2.32240930e-01
  4.69069858e-01  3.60454891e-01 -1.14961023e-01 -1.69118034e-01  1.14585223e+00
  6.75800232e-02  3.23907111e-01  7.40895255e-01  1.00000000e+00  1.00000000e+00
  1.00000000e+00  1.00000000e+00  1.00000000e+00  1.83470016e-03  1.40373012e-02
  6.88426061e-02  2.32184421e-01  4.67941342e-01  3.62312032e-01 -1.19332409e-01
 -1.60854212e-01  1.14345648e+00  6.89990956e-02  3.16423980e-01  7.44308252e-01
  1.00000000e+00  1.00000000e+00  1.00000000e+00  1.00000000e+00  1.00000000e+00
  1.83470016e-03  1.40373012e-02  6.88426061e-02  2.32184421e-01  4.67941342e-01
  3.62312032e-01 -1.19332409e-01 -1.60854212e-01  1.14345648e+00  6.89990956e-02
  3.16423980e-01  7.44308252e-01  1.00000000e+00  1.00000000e+00  1.00000000e+00
  1.00000000e+00  1.00000000e+00  1.83470016e-03  1.40373012e-02  6.88426061e-02
  2.32184421e-01  4.67941342e-01  3.62312032e-01 -1.19332409e-01 -1.60854212e-01
  1.14345648e+00  6.89990956e-02  3.16423980e-01  7.44308252e-01  1.00000000e+00
  1.00000000e+00  1.00000000e+00  1.00000000e+00  1.00000000e+00  1.83470016e-03
  1.40373012e-02  6.88426061e-02  2.32184421e-01  4.67941342e-01  3.62312032e-01
 -1.19332409e-01 -1.60854212e-01  1.14345648e+00  6.89990956e-02  3.16423980e-01
  7.44308252e-01  1.00000000e+00  1.00000000e+00  1.00000000e+00  1.00000000e+00
  1.00000000e+00  1.83470016e-03  1.40373012e-02  6.88426061e-02  2.32184421e-01
  4.67941342e-01  3.62312032e-01 -1.19332409e-01 -1.60854212e-01  1.14345648e+00
  6.89990956e-02  3.16423980e-01  7.44308252e-01  1.00000000e+00  1.00000000e+00
  1.00000000e+00  1.00000000e+00  1.00000000e+00  3.34945995e-02  2.34726947e-01
  8.13757318e-01  1.00000000e+00  3.34945995e-02  2.34726947e-01  8.13757318e-01
  1.00000000e+00  1.83470016e-03  1.40373012e-02  6.88426061e-02  2.32184421e-01
  4.67941342e-01  3.62312032e-01 -1.19332409e-01 -1.60854212e-01  1.14345648e+00
  6.89990956e-02  3.16423980e-01  7.44308252e-01  1.00000000e+00  1.00000000e+00
  1.00000000e+00  1.00000000e+00  1.00000000e+00  3.34945995e-02  2.34726947e-01
  8.13757318e-01  1.00000000e+00  1.83470016e-03  1.40373012e-02  6.88426061e-02
  2.32184421e-01  4.67941342e-01  3.62312032e-01 -1.19332409e-01 -1.60854212e-01
  1.14345648e+00  6.89990956e-02  3.16423980e-01  7.44308252e-01  1.00000000e+00
  1.00000000e+00  1.00000000e+00  1.00000000e+00  1.00000000e+00  1.83109981e-03
  1.39500985e-02  6.84450927e-02  2.32714275e-01  4.70192950e-01  3.58520862e-01
 -1.10777504e-01 -1.48026305e-01  1.13076704e+00  7.08742995e-02  3.39752798e-01
  7.27158595e-01  1.00000000e+00  1.00000000e+00  1.00000000e+00  1.00000000e+00
  1.00000000e+00  3.34945995e-02  2.34726947e-01  8.13757318e-01  1.00000000e+00
  1.83470016e-03  1.40373012e-02  6.88426061e-02  2.32184421e-01  4.67941342e-01
  3.62312032e-01 -1.19332409e-01 -1.60854212e-01  1.14345648e+00  6.89990956e-02
  3.16423980e-01  7.44308252e-01  1.00000000e+00  1.00000000e+00  1.00000000e+00
  1.00000000e+00  1.00000000e+00  3.34945995e-02  2.34726947e-01  8.13757318e-01
  1.00000000e+00  3.34945995e-02  2.34726947e-01  8.13757318e-01  1.00000000e+00
  1.83470016e-03  1.40373012e-02  6.88426061e-02  2.32184421e-01  4.67941342e-01
  3.62312032e-01 -1.19332409e-01 -1.60854212e-01  1.14345648e+00  6.89990956e-02
  3.16423980e-01  7.44308252e-01  1.00000000e+00  1.00000000e+00  1.00000000e+00
  1.00000000e+00  1.00000000e+00  1.83470016e-03  1.40373012e-02  6.88426061e-02
  2.32184421e-01  4.67941342e-01  3.62312032e-01 -1.19332409e-01 -1.60854212e-01
  1.14345648e+00  6.89990956e-02  3.16423980e-01  7.44308252e-01  1.00000000e+00
  1.00000000e+00  1.00000000e+00  1.00000000e+00  1.00000000e+00  3.34945995e-02
  2.34726947e-01  8.13757318e-01  1.00000000e+00  3.34945995e-02  2.34726947e-01
  8.13757318e-01  1.00000000e+00  3.34945995e-02  2.34726947e-01  8.13757318e-01
  1.00000000e+00  3.34945995e-02  2.34726947e-01  8.13757318e-01  1.00000000e+00
  3.34945995e-02  2.34726947e-01  8.13757318e-01  1.00000000e+00  3.34945995e-02
  2.34726947e-01  8.13757318e-01  1.00000000e+00  3.34945995e-02  2.34726947e-01
  8.13757318e-01  1.00000000e+00  3.34945995e-02  2.34726947e-01  8.13757318e-01
  1.00000000e+00  3.34945995e-02  2.34726947e-01  8.13757318e-01  1.00000000e+00
  3.34945995e-02  2.34726947e-01  8.13757318e-01  1.00000000e+00  3.34945995e-02
  2.34726947e-01  8.13757318e-01  1.00000000e+00
Coordinates of each shell                  R   N=         462
  9.04974991e-01 -3.12662422e-01 -2.66103964e+00  9.04974991e-01 -3.12662422e-01
 -2.66103964e+00  9.04974991e-01 -3.12662422e-01 -2.66103964e+00  9.04974991e-01
 -3.12662422e-01 -2.66103964e+00  9.04974991e-01 -3.12662422e-01 -2.66103964e+00
  9.04974991e-01 -3.12662422e-01 -2.66103964e+00  9.04974991e-01 -3.12662422e-01
 -2.66103964e+00  9.04974991e-01 -3.12662422e-01 -2.66103964e+00 -1.32468020e+00
  1.29240894e+00 -1.94706392e+00 -1.32468020e+00  1.29240894e+00 -1.94706392e+00
 -1.32468020e+00  1.29240894e+00 -1.94706392e+00 -1.32468020e+00  1.29240894e+00
 -1.94706392e+00 -1.32468020e+00  1.29240894e+00 -1.94706392e+00 -1.32468020e+00
  1.29240894e+00 -1.94706392e+00 -1.32468020e+00  1.29240894e+00 -1.94706392e+00
 -1.32468020e+00  1.29240894e+00 -1.94706392e+00 -1.50555590e+00  2.63689977e+00
  6.39564746e-01 -1.50555590e+00  2.63689977e+00  6.39564746e-01 -1.50555590e+00
  2.63689977e+00  6.39564746e-01 -1.50555590e+00  2.63689977e+00  6.39564746e-01
 -1.50555590e+00  2.63689977e+00  6.39564746e-01 -1.50555590e+00  2.63689977e+00
  6.39564746e-01 -1.50555590e+00  2.63689977e+00  6.39564746e-01 -1.50555590e+00
  2.63689977e+00  6.39564746e-01 -1.26858500e+00  8.96415632e-01  2.78084476e+00
 -1.26858500e+00  8.96415632e-01  2.78084476e+00 -1.26858500e+00  8.96415632e-01
  2.78084476e+00 -1.26858500e+00  8.96415632e-01  2.78084476e+00 -1.26858500e+00
  8.96415632e-01  2.78084476e+00 -1.26858500e+00  8.96415632e-01  2.78084476e+00
 -1.26858500e+00  8.96415632e-01  2.78084476e+00 -1.26858500e+00  8.96415632e-01
  2.78084476e+00  2.76991416e+00 -1.08601552e+00 -9.33619625e-01  2.76991416e+00
 -1.08601552e+00 -9.33619625e-01  2.76991416e+00 -1.08601552e+00 -9.33619625e-01
  2.76991416e+00 -1.08601552e+00 -9.33619625e-01  2.76991416e+00 -1.08601552e+00
 -9.33619625e-01  2.76991416e+00 -1.08601552e+00 -9.33619625e-01  2.76991416e+00
 -1.08601552e+00 -9.33619625e-01  2.76991416e+00 -1.08601552e+00 -9.33619625e-01
  4.79828296e+00 -2.56963603e+00 -1.74211542e+00  4.79828296e+00 -2.56963603e+00
 -1.74211542e+00  4.79828296e+00 -2.56963603e+00 -1.74211542e+00  4.79828296e+00
 -2.56963603e+00 -1.74211542e+00  4.79828296e+00 -2.56963603e+00 -1.74211542e+00
  4.79828296e+00 -2.56963603e+00 -1.74211542e+00  4.79828296e+00 -2.56963603e+00
 -1.74211542e+00  4.79828296e+00 -2.56963603e+00 -1.74211542e+00  4.99527332e+00
 -3.28941134e+00 -4.27479663e+00  4.99527332e+00 -3.28941134e+00 -4.27479663e+00
  4.99527332e+00 -3.28941134e+00 -4.27479663e+00  4.99527332e+00 -3.28941134e+00
 -4.27479663e+00  4.99527332e+00 -3.28941134e+00 -4.27479663e+00  4.99527332e+00
 -3.28941134e+00 -4.27479663e+00  4.99527332e+00 -3.28941134e+00 -4.27479663e+00
  4.99527332e+00 -3.28941134e+00 -4.27479663e+00  3.14536144e+00 -2.52970925e+00
 -6.00717753e+00  3.14536144e+00 -2.52970925e+00 -6.00717753e+00  3.14536144e+00
 -2.52970925e+00 -6.00717753e+00  3.14536144e+00 -2.52970925e+00 -6.00717753e+00
  3.14536144e+00 -2.52970925e+00 -6.00717753e+00  3.14536144e+00 -2.52970925e+00
 -6.00717753e+00  3.14536144e+00 -2.52970925e+00 -6.00717753e+00  3.14536144e+00
 -2.52970925e+00 -6.00717753e+00  1.11540535e+00 -1.05902391e+00 -5.20517797e+00
  1.11540535e+00 -1.05902391e+00 -5.20517797e+00  1.11540535e+00 -1.05902391e+00
 -5.20517797e+00  1.11540535e+00 -1.05902391e+00 -5.20517797e+00  1.11540535e+00
 -1.05902391e+00 -5.20517797e+00  1.11540535e+00 -1.05902391e+00 -5.20517797e+00
  1.11540535e+00 -1.05902391e+00 -5.20517797e+00  1.11540535e+00 -1.05902391e+00
 -5.20517797e+00  2.58566054e+00 -5.67029668e-01  1.04011345e+00  2.58566054e+00
 -5.67029668e-01  1.04011345e+00  6.22359968e+00 -3.16728134e+00 -3.88613278e-01
  6.22359968e+00 -3.16728134e+00 -3.88613278e-01  4.43111269e-01  4.79784904e+00
  7.36268001e-01  4.43111269e-01  4.79784904e+00  7.36268001e-01  4.43111269e-01
  4.79784904e+00  7.36268001e-01  4.43111269e-01  4.79784904e+00  7.36268001e-01
  4.43111269e-01  4.79784904e+00  7.36268001e-01  4.43111269e-01  4.79784904e+00
  7.36268001e-01  4.43111269e-01  4.79784904e+00  7.36268001e-01  4.43111269e-01
  4.79784904e+00  7.36268001e-01 -3.41363526e+00  3.49267649e+00  6.21320544e-01
 -3.41363526e+00  3.49267649e+00  6.21320544e-01 -3.16778948e+00 -1.13582790e+00
  2.76508670e+00 -3.16778948e+00 -1.13582790e+00  2.76508670e+00 -3.16778948e+00
 -1.13582790e+00  2.76508670e+00 -3.16778948e+00 -1.13582790e+00  2.76508670e+00
 -3.16778948e+00 -1.13582790e+00  2.76508670e+00 -3.16778948e+00 -1.13582790e+00
  2.76508670e+00 -3.16778948e+00 -1.13582790e+00  2.76508670e+00 -3.16778948e+00
 -1.13582790e+00  2.76508670e+00 -3.00954188e+00  1.68488931e+00 -3.48667843e+00
 -3.00954188e+00  1.68488931e+00 -3.48667843e+00 -3.00954188e+00  1.68488931e+00
 -3.48667843e+00 -3.00954188e+00  1.68488931e+00 -3.48667843e+00 -3.00954188e+00
  1.68488931e+00 -3.48667843e+00 -3.00954188e+00  1.68488931e+00 -3.48667843e+00
 -3.00954188e+00  1.68488931e+00 -3.48667843e+00 -3.00954188e+00  1.68488931e+00
 -3.48667843e+00 -3.36235021e-01 -4.57877480e-01 -6.52378181e+00 -3.36235021e-01
 -4.57877480e-01 -6.52378181e+00 -2.94353520e+00 -2.32898219e+00  5.40585031e+00
 -2.94353520e+00 -2.32898219e+00  5.40585031e+00 -2.94353520e+00 -2.32898219e+00
  5.40585031e+00 -2.94353520e+00 -2.32898219e+00  5.40585031e+00 -2.94353520e+00
 -2.32898219e+00  5.40585031e+00 -2.94353520e+00 -2.32898219e+00  5.40585031e+00
 -2.94353520e+00 -2.32898219e+00  5.40585031e+00 -2.94353520e+00 -2.32898219e+00
  5.40585031e+00 -2.79627364e+00 -2.47511966e+00  1.23183011e+00 -2.79627364e+00
 -2.47511966e+00  1.23183011e+00 -5.08686026e+00 -3.52310667e-01  2.47013606e+00
 -5.08686026e+00 -3.52310667e-01  2.47013606e+00 -1.56840703e+00  2.08963843e+00
  5.27230288e+00 -1.56840703e+00  2.08963843e+00  5.27230288e+00 -1.56840703e+00
  2.08963843e+00  5.27230288e+00 -1.56840703e+00  2.08963843e+00  5.27230288e+00
 -1.56840703e+00  2.08963843e+00  5.27230288e+00 -1.56840703e+00  2.08963843e+00
  5.27230288e+00 -1.56840703e+00  2.08963843e+00  5.27230288e+00 -1.56840703e+00
  2.08963843e+00  5.27230288e+00 -1.91248562e+00 -1.55662289e-01  7.09530917e+00
 -1.91248562e+00 -1.55662289e-01  7.09530917e+00 -1.91248562e+00 -1.55662289e-01
  7.09530917e+00 -1.91248562e+00 -1.55662289e-01  7.09530917e+00 -1.91248562e+00
 -1.55662289e-01  7.09530917e+00 -1.91248562e+00 -1.55662289e-01  7.09530917e+00
 -1.91248562e+00 -1.55662289e-01  7.09530917e+00 -1.91248562e+00 -1.55662289e-01
  7.09530917e+00 -1.61985265e+00 -3.91892432e+00  5.37325178e+00 -1.61985265e+00
 -3.91892432e+00  5.37325178e+00 -4.76561574e+00 -3.05438763e+00  6.06425084e+00
 -4.76561574e+00 -3.05438763e+00  6.06425084e+00 -1.01778177e-01 -6.85270957e-01
  7.94499400e+00 -1.01778177e-01 -6.85270957e-01  7.94499400e+00 -3.20031674e+00
  3.27432893e-01  8.64093160e+00 -3.20031674e+00  3.27432893e-01  8.64093160e+00
 -3.26171567e+00  3.32511176e+00  5.30498221e+00 -3.26171567e+00  3.32511176e+00
  5.30498221e+00  7.21741405e-02  3.25588294e+00  5.74218036e+00  7.21741405e-02
  3.25588294e+00  5.74218036e+00  3.29049652e+00 -3.08586684e+00 -7.97935324e+00
  3.29049652e+00 -3.08586684e+00 -7.97935324e+00  6.57926500e+00 -4.43994487e+00
 -4.89870036e+00  6.57926500e+00 -4.43994487e+00 -4.89870036e+00  2.37504516e+00
  4.07862072e+00  9.02791901e-01  2.37504516e+00  4.07862072e+00  9.02791901e-01
  6.73654670e-02  6.05190117e+00  2.33794415e+00  6.73654670e-02  6.05190117e+00
  2.33794415e+00  3.15737043e-01  5.93838696e+00 -9.86696770e-01  3.15737043e-01
  5.93838696e+00 -9.86696770e-01
Total Energy                               R     -6.356080627729949e+02
Alpha Orbital Energies                     R   N=         319
 -1.91472129e+01 -1.43390483e+01 -1.02813523e+01 -1.02286572e+01 -1.02162493e+01
 -1.02127079e+01 -1.02090219e+01 -1.02083046e+01 -1.02040654e+01 -1.02038262e+01
 -1.02028401e+01 -1.02025239e+01 -1.01922774e+01 -1.01908610e+01 -1.01905009e+01
 -1.04511169e+00 -9.42672825e-01 -8.66296032e-01 -8.06136573e-01 -7.67456304e-01
 -7.56643733e-01 -7.40769579e-01 -7.30518720e-01 -6.61648091e-01 -6.29906522e-01
 -6.13984553e-01 -5.91592053e-01 -5.81899541e-01 -5.57691327e-01 -5.22418987e-01
 -5.03249214e-01 -4.93022327e-01 -4.72741257e-01 -4.58638053e-01 -4.52583353e-01
 -4.41045705e-01 -4.36618202e-01 -4.29202378e-01 -4.17365581e-01 -4.15912759e-01
 -4.07157536e-01 -3.92829450e-01 -3.75999727e-01 -3.75817944e-01 -3.67710216e-01
 -3.59938986e-01 -3.51548885e-01 -3.50522920e-01 -3.47219210e-01 -3.45781607e-01
 -3.29869082e-01 -2.65284212e-01 -2.63278115e-01 -2.54677771e-01 -2.29386108e-01
 -6.67299012e-02 -1.91241426e-02 -8.95997779e-05  9.08399333e-03  1.46305344e-02
  1.83793646e-02  2.51319759e-02  2.75054495e-02  3.13766837e-02  3.81250030e-02
  4.28226955e-02  4.77964272e-02  4.95062877e-02  5.49682526e-02  5.88603975e-02
  6.63749548e-02  7.31397706e-02  7.66220451e-02  8.14196870e-02  8.91223434e-02