Generated by Psi4
     FORCE                           RHF                       TESTBAS
Number of atoms                            I               27
Charge                                     I                0
Multiplicity                               I                1
Number of electrons                        I              138
Number of alpha electrons                  I               69
Number of beta electrons                   I               69
Number of basis functions                  I              325
Number of independent functions            I              325
Atomic numbers                             I   N=          27
           6           6           6           7           6           6
           6           6           6           1           1           1
           8           6           1           1           1           1
           8           6           1           1           1          35
           1           1           8
Nuclear charges                            R   N=          27
  6.00000000e+00  6.00000000e+00  6.00000000e+00  7.00000000e+00  6.00000000e+00
  6.00000000e+00  6.00000000e+00  6.00000000e+00  6.00000000e+00  1.00000000e+00
  1.00000000e+00  1.00000000e+00  8.00000000e+00  6.00000000e+00  1.00000000e+00
  1.00000000e+00  1.00000000e+00  1.00000000e+00  8.00000000e+00  6.00000000e+00
  1.00000000e+00  1.00000000e+00  1.00000000e+00  3.50000000e+01  1.00000000e+00
  1.00000000e+00  8.00000000e+00
Current cartesian coordinates              R   N=          81
 -1.91874379e+00 -1.25543455e+00  1.79557202e+00 -3.85386360e+00 -2.62876294e+00
  3.36309714e+00 -4.35211800e+00 -1.93216471e+00  6.13661380e+00 -6.28068110e+00
 -3.43724198e+00  7.38951526e+00 -3.71563038e-01  7.60349844e-01  2.61593676e+00
  1.35359844e+00  1.85535979e+00  9.25518681e-01  1.55024804e+00  9.73584816e-01
 -1.54178652e+00  3.60507989e-02 -1.02968709e+00 -2.41276379e+00 -1.66663163e+00
 -2.09675796e+00 -7.13809832e-01 -2.88380324e+00 -3.64479719e+00 -1.27367769e+00
 -5.80560314e+00 -5.30159747e+00  7.30899479e+00 -7.94066697e+00 -3.30349218e+00
  6.42277930e+00  3.42915759e-01 -1.78133560e+00 -4.85204426e+00 -1.17516511e+00
 -3.80748995e+00 -5.76512351e+00 -6.10476432e-01 -4.07399608e+00 -7.72984622e+00
 -3.19178204e+00 -3.33300688e+00 -5.67803268e+00 -8.23716415e-01 -5.54947462e+00
 -4.69674124e+00  2.55819014e+00  3.40073827e+00  1.50954653e+00 -6.16587111e-01
  1.57545282e+00  5.04996138e+00  9.18811592e-01  3.60494334e+00  5.92803454e+00
  2.93213701e+00  3.11976521e+00  5.83147807e+00  3.74575558e-01  3.89411401e+00
  7.89557356e+00  5.60628068e-01  5.33880566e+00  4.84932666e+00  3.92360363e+00
  2.52533480e+00 -3.76535113e+00 -4.87011689e+00  7.13152244e-02  6.23702679e+00
 -2.57393318e+00 -2.07799712e+00  7.18968097e+00 -5.07140572e+00 -4.35439556e+00
  2.40414047e+00
Integer atomic weights                     I   N=          27
          12          12          12          14          12          12
          12          12          12           1           1           1
          15          12           1           1           1           1
          15          12           1           1           1          78
           1           1          15
Real atomic weights                        R   N=          27
  1.20000000e+01  1.20000000e+01  1.20000000e+01  1.40030740e+01  1.20000000e+01
  1.20000000e+01  1.20000000e+01  1.20000000e+01  1.20000000e+01  1.00782503e+00
  1.00782503e+00  1.00782503e+00  1.59949146e+01  1.20000000e+01  1.00782503e+00
  1.00782503e+00  1.00782503e+00  1.00782503e+00  1.59949146e+01  1.20000000e+01
  1.00782503e+00  1.00782503e+00  1.00782503e+00  7.89183376e+01  1.00782503e+00
  1.00782503e+00  1.59949146e+01
Number of primitive shells                 I              329
Number of contracted shells                I              148
Pure/Cartesian d shells                    I                1
Pure/Cartesian f shells                    I                1
Highest angular momentum                   I                2
Largest degree of contraction              I                6
Shell types                                I   N=         148
           0           0           1           0           1           2
           0           1           0           0           1           0
           1           2           0           1           0           0
           1           0           1           2           0           1
           0           0           1           0           1           2
           0           1           0           0           1           0
           1           2           0           1           0           0
           1           0           1           2           0           1
           0           0           1           0           1           2
           0           1           0           0           1           0
           1           2           0           1           0           0
           1           0           1           2           0           1
           0           0           0           0           0           0
           0           0           1           0           1           2
           0           1           0           0           1           0
           1           2           0           1           0           0
           0           0           0           0           0           0
           0           0           1           0           1           2
           0           1           0           0           1           0
           1           2           0           1           0           0
           0           0           0           0           0           0
           1           0           1           0           1           0
           1           2           2           2           0           0
           0           0           0           0           1           0
           1           2           0           1
Number of primitives per shell             I   N=         148
           6           3           3           1           1           1
           1           1           6           3           3           1
           1           1           1           1           6           3
           3           1           1           1           1           1
           6           3           3           1           1           1
           1           1           6           3           3           1
           1           1           1           1           6           3
           3           1           1           1           1           1
           6           3           3           1           1           1
           1           1           6           3           3           1
           1           1           1           1           6           3
           3           1           1           1           1           1
           3           1           3           1           3           1
           6           3           3           1           1           1
           1           1           6           3           3           1
           1           1           1           1           3           1
           3           1           3           1           3           1
           6           3           3           1           1           1
           1           1           6           3           3           1
           1           1           1           1           3           1
           3           1           3           1           6           6
           6           6           6           3           3           1
           1           3           1           1           3           1
           3           1           6           3           3           1
           1           1           1           1
Shell to atom map                          I   N=         148
           1           1           1           1           1           1
           1           1           2           2           2           2
           2           2           2           2           3           3
           3           3           3           3           3           3
           4           4           4           4           4           4
           4           4           5           5           5           5
           5           5           5           5           6           6
           6           6           6           6           6           6
           7           7           7           7           7           7
           7           7           8           8           8           8
           8           8           8           8           9           9
           9           9           9           9           9           9
          10          10          11          11          12          12
          13          13          13          13          13          13
          13          13          14          14          14          14
          14          14          14          14          15          15
          16          16          17          17          18          18
          19          19          19          19          19          19
          19          19          20          20          20          20
          20          20          20          20          21          21
          22          22          23          23          24          24
          24          24          24          24          24          24
          24          24          24          24          25          25
          26          26          27          27          27          27
          27          27          27          27
Primitive exponents                        R   N=         329
  3.04752490e+03  4.57369510e+02  1.03948690e+02  2.92101550e+01  9.28666300e+00
  3.16392700e+00  7.86827240e+00  1.88128850e+00  5.44249300e-01  7.86827240e+00
  1.88128850e+00  5.44249300e-01  1.68714400e-01  1.68714400e-01  8.00000000e-01
  4.38000000e-02  4.38000000e-02  3.04752490e+03  4.57369510e+02  1.03948690e+02
  2.92101550e+01  9.28666300e+00  3.16392700e+00  7.86827240e+00  1.88128850e+00
  5.44249300e-01  7.86827240e+00  1.88128850e+00  5.44249300e-01  1.68714400e-01
  1.68714400e-01  8.00000000e-01  4.38000000e-02  4.38000000e-02  3.04752490e+03
  4.57369510e+02  1.03948690e+02  2.92101550e+01  9.28666300e+00  3.16392700e+00
  7.86827240e+00  1.88128850e+00  5.44249300e-01  7.86827240e+00  1.88128850e+00
  5.44249300e-01  1.68714400e-01  1.68714400e-01  8.00000000e-01  4.38000000e-02
  4.38000000e-02  4.17351100e+03  6.27457900e+02  1.42902100e+02  4.02343300e+01
  1.28202100e+01  4.39043700e+00  1.16263580e+01  2.71628000e+00  7.72218000e-01
  1.16263580e+01  2.71628000e+00  7.72218000e-01  2.12031300e-01  2.12031300e-01
  8.00000000e-01  6.39000000e-02  6.39000000e-02  3.04752490e+03  4.57369510e+02
  1.03948690e+02  2.92101550e+01  9.28666300e+00  3.16392700e+00  7.86827240e+00
  1.88128850e+00  5.44249300e-01  7.86827240e+00  1.88128850e+00  5.44249300e-01
  1.68714400e-01  1.68714400e-01  8.00000000e-01  4.38000000e-02  4.38000000e-02
  3.04752490e+03  4.57369510e+02  1.03948690e+02  2.92101550e+01  9.28666300e+00
  3.16392700e+00  7.86827240e+00  1.88128850e+00  5.44249300e-01  7.86827240e+00
  1.88128850e+00  5.44249300e-01  1.68714400e-01  1.68714400e-01  8.00000000e-01
  4.38000000e-02  4.38000000e-02  3.04752490e+03  4.57369510e+02  1.03948690e+02
  2.92101550e+01  9.28666300e+00  3.16392700e+00  7.86827240e+00  1.88128850e+00
  5.44249300e-01  7.86827240e+00  1.88128850e+00  5.44249300e-01  1.68714400e-01
  1.68714400e-01  8.00000000e-01  4.38000000e-02  4.38000000e-02  3.04752490e+03
  4.57369510e+02  1.03948690e+02  2.92101550e+01  9.28666300e+00  3.16392700e+00
  7.86827240e+00  1.88128850e+00  5.44249300e-01  7.86827240e+00  1.88128850e+00
  5.44249300e-01  1.68714400e-01  1.68714400e-01  8.00000000e-01  4.38000000e-02
  4.38000000e-02  3.04752490e+03  4.57369510e+02  1.03948690e+02  2.92101550e+01
  9.28666300e+00  3.16392700e+00  7.86827240e+00  1.88128850e+00  5.44249300e-01
  7.86827240e+00  1.88128850e+00  5.44249300e-01  1.68714400e-01  1.68714400e-01
  8.00000000e-01  4.38000000e-02  4.38000000e-02  1.87311370e+01  2.82539370e+00
  6.40121700e-01  1.61277800e-01  1.87311370e+01  2.82539370e+00  6.40121700e-01
  1.61277800e-01  1.87311370e+01  2.82539370e+00  6.40121700e-01  1.61277800e-01
  5.48467170e+03  8.25234950e+02  1.88046960e+02  5.29645000e+01  1.68975700e+01
  5.79963530e+00  1.55396160e+01  3.59993360e+00  1.01376180e+00  1.55396160e+01
  3.59993360e+00  1.01376180e+00  2.70005800e-01  2.70005800e-01  8.00000000e-01
  8.45000000e-02  8.45000000e-02  3.04752490e+03  4.57369510e+02  1.03948690e+02
  2.92101550e+01  9.28666300e+00  3.16392700e+00  7.86827240e+00  1.88128850e+00
  5.44249300e-01  7.86827240e+00  1.88128850e+00  5.44249300e-01  1.68714400e-01
  1.68714400e-01  8.00000000e-01  4.38000000e-02  4.38000000e-02  1.87311370e+01
  2.82539370e+00  6.40121700e-01  1.61277800e-01  1.87311370e+01  2.82539370e+00
  6.40121700e-01  1.61277800e-01  1.87311370e+01  2.82539370e+00  6.40121700e-01
  1.61277800e-01  1.87311370e+01  2.82539370e+00  6.40121700e-01  1.61277800e-01
  5.48467170e+03  8.25234950e+02  1.88046960e+02  5.29645000e+01  1.68975700e+01
  5.79963530e+00  1.55396160e+01  3.59993360e+00  1.01376180e+00  1.55396160e+01
  3.59993360e+00  1.01376180e+00  2.70005800e-01  2.70005800e-01  8.00000000e-01
  8.45000000e-02  8.45000000e-02  3.04752490e+03  4.57369510e+02  1.03948690e+02
  2.92101550e+01  9.28666300e+00  3.16392700e+00  7.86827240e+00  1.88128850e+00
  5.44249300e-01  7.86827240e+00  1.88128850e+00  5.44249300e-01  1.68714400e-01
  1.68714400e-01  8.00000000e-01  4.38000000e-02  4.38000000e-02  1.87311370e+01
  2.82539370e+00  6.40121700e-01  1.61277800e-01  1.87311370e+01  2.82539370e+00
  6.40121700e-01  1.61277800e-01  1.87311370e+01  2.82539370e+00  6.40121700e-01
  1.61277800e-01  1.13718200e+05  1.70744400e+04  3.88957600e+03  1.09709600e+03
  3.52062400e+02  1.20700200e+02  2.47113800e+03  5.89383800e+02  1.91873800e+02
  7.29533900e+01  3.00583900e+01  1.25292700e+01  2.47113800e+03  5.89383800e+02
  1.91873800e+02  7.29533900e+01  3.00583900e+01  1.25292700e+01  1.09641100e+02
  3.85894800e+01  1.63781800e+01  7.22183600e+00  3.26369700e+00  1.46549900e+00
  1.09641100e+02  3.85894800e+01  1.63781800e+01  7.22183600e+00  3.26369700e+00
  1.46549900e+00  2.10365100e+00  7.54705000e-01  3.00514000e-01  2.10365100e+00
  7.54705000e-01  3.00514000e-01  1.09071000e-01  1.09071000e-01  6.22551400e+01
  1.73128400e+01  5.60791500e+00  1.74648600e+00  4.36600000e-01  1.87311370e+01
  2.82539370e+00  6.40121700e-01  1.61277800e-01  1.87311370e+01  2.82539370e+00
  6.40121700e-01  1.61277800e-01  5.48467170e+03  8.25234950e+02  1.88046960e+02
  5.29645000e+01  1.68975700e+01  5.79963530e+00  1.55396160e+01  3.59993360e+00
  1.01376180e+00  1.55396160e+01  3.59993360e+00  1.01376180e+00  2.70005800e-01
  2.70005800e-01  8.00000000e-01  8.45000000e-02  8.45000000e-02
Contraction coefficients                   R   N=         329
  1.83470016e-03  1.40373012e-02  6.88426061e-02  2.32184421e-01  4.67941342e-01
  3.62312032e-01 -1.19332409e-01 -1.60854212e-01  1.14345648e+00  6.89990956e-02
  3.16423980e-01  7.44308252e-01  1.00000000e+00  1.00000000e+00  1.00000000e+00
  1.00000000e+00  1.00000000e+00  1.83470016e-03  1.40373012e-02  6.88426061e-02
  2.32184421e-01  4.67941342e-01  3.62312032e-01 -1.19332409e-01 -1.60854212e-01
  1.14345648e+00  6.89990956e-02  3.16423980e-01  7.44308252e-01  1.00000000e+00
  1.00000000e+00  1.00000000e+00  1.00000000e+00  1.00000000e+00  1.83470016e-03
  1.40373012e-02  6.88426061e-02  2.32184421e-01  4.67941342e-01  3.62312032e-01
 -1.19332409e-01 -1.60854212e-01  1.14345648e+00  6.89990956e-02  3.16423980e-01
  7.44308252e-01  1.00000000e+00  1.00000000e+00  1.00000000e+00  1.00000000e+00
  1.00000000e+00  1.83479944e-03  1.39949958e-02  6.85869792e-02  2.32240930e-01
  4.69069858e-01  3.60454891e-01 -1.14961023e-01 -1.69118034e-01  1.14585223e+00
  6.75800232e-02  3.23907111e-01  7.40895255e-01  1.00000000e+00  1.00000000e+00
  1.00000000e+00  1.00000000e+00  1.00000000e+00  1.83470016e-03  1.40373012e-02
  6.88426061e-02  2.32184421e-01  4.67941342e-01  3.62312032e-01 -1.19332409e-01
 -1.60854212e-01  1.14345648e+00  6.89990956e-02  3.16423980e-01  7.44308252e-01
  1.00000000e+00  1.00000000e+00  1.00000000e+00  1.00000000e+00  1.00000000e+00
  1.83470016e-03  1.40373012e-02  6.88426061e-02  2.32184421e-01  4.67941342e-01
  3.62312032e-01 -1.19332409e-01 -1.60854212e-01  1.14345648e+00  6.89990956e-02
  3.16423980e-01  7.44308252e-01  1.00000000e+00  1.00000000e+00  1.00000000e+00
  1.00000000e+00  1.00000000e+00  1.83470016e-03  1.40373012e-02  6.88426061e-02
  2.32184421e-01  4.67941342e-01  3.62312032e-01 -1.19332409e-01 -1.60854212e-01
  1.14345648e+00  6.89990956e-02  3.16423980e-01  7.44308252e-01  1.00000000e+00
  1.00000000e+00  1.00000000e+00  1.00000000e+00  1.00000000e+00  1.83470016e-03
  1.40373012e-02  6.88426061e-02  2.32184421e-01  4.67941342e-01  3.62312032e-01
 -1.19332409e-01 -1.60854212e-01  1.14345648e+00  6.89990956e-02  3.16423980e-01
  7.44308252e-01  1.00000000e+00  1.00000000e+00  1.00000000e+00  1.00000000e+00
  1.00000000e+00  1.83470016e-03  1.40373012e-02  6.88426061e-02  2.32184421e-01
  4.67941342e-01  3.62312032e-01 -1.19332409e-01 -1.60854212e-01  1.14345648e+00
  6.89990956e-02  3.16423980e-01  7.44308252e-01  1.00000000e+00  1.00000000e+00
  1.00000000e+00  1.00000000e+00  1.00000000e+00  3.34945995e-02  2.34726947e-01
  8.13757318e-01  1.00000000e+00  3.34945995e-02  2.34726947e-01  8.13757318e-01
  1.00000000e+00  3.34945995e-02  2.34726947e-01  8.13757318e-01  1.00000000e+00
  1.83109981e-03  1.39500985e-02  6.84450927e-02  2.32714275e-01  4.70192950e-01
  3.58520862e-01 -1.10777504e-01 -1.48026305e-01  1.13076704e+00  7.08742995e-02
  3.39752798e-01  7.27158595e-01  1.00000000e+00  1.00000000e+00  1.00000000e+00
  1.00000000e+00  1.00000000e+00  1.83470016e-03  1.40373012e-02  6.88426061e-02
  2.32184421e-01  4.67941342e-01  3.62312032e-01 -1.19332409e-01 -1.60854212e-01
  1.14345648e+00  6.89990956e-02  3.16423980e-01  7.44308252e-01  1.00000000e+00
  1.00000000e+00  1.00000000e+00  1.00000000e+00  1.00000000e+00  3.34945995e-02
  2.34726947e-01  8.13757318e-01  1.00000000e+00  3.34945995e-02  2.34726947e-01
  8.13757318e-01  1.00000000e+00  3.34945995e-02  2.34726947e-01  8.13757318e-01
  1.00000000e+00  3.34945995e-02  2.34726947e-01  8.13757318e-01  1.00000000e+00
  1.83109981e-03  1.39500985e-02  6.84450927e-02  2.32714275e-01  4.70192950e-01
  3.58520862e-01 -1.10777504e-01 -1.48026305e-01  1.13076704e+00  7.08742995e-02
  3.39752798e-01  7.27158595e-01  1.00000000e+00  1.00000000e+00  1.00000000e+00
  1.00000000e+00  1.00000000e+00  1.83470016e-03  1.40373012e-02  6.88426061e-02
  2.32184421e-01  4.67941342e-01  3.62312032e-01 -1.19332409e-01 -1.60854212e-01
  1.14345648e+00  6.89990956e-02  3.16423980e-01  7.44308252e-01  1.00000000e+00
  1.00000000e+00  1.00000000e+00  1.00000000e+00  1.00000000e+00  3.34945995e-02
  2.34726947e-01  8.13757318e-01  1.00000000e+00  3.34945995e-02  2.34726947e-01
  8.13757318e-01  1.00000000e+00  3.34945995e-02  2.34726947e-01  8.13757318e-01
  1.00000000e+00  1.71769602e-03  1.31674402e-02  6.50455308e-02  2.26950503e-01
  4.76835706e-01  3.58367704e-01  2.24368693e-03  2.99485291e-02  1.25600896e-01
 -9.83278571e-04 -6.01314082e-01 -4.91398286e-01  3.79018184e-03  2.99597888e-02
  1.31822795e-01  3.43270786e-01  4.64234481e-01  2.07938691e-01 -5.97568320e-03
  5.54212219e-02  2.68120009e-01 -1.54360605e-01 -7.20630625e-01 -3.31643711e-01
 -6.90748264e-03 -3.04143184e-02  4.60272476e-02  3.65068881e-01  4.94923174e-01
  2.09039389e-01  3.02902925e-01 -2.15265918e-01 -9.63394181e-01 -2.82671388e-02
  3.50306486e-01  7.18244570e-01  1.00000000e+00  1.00000000e+00  7.70422846e-02
  3.70738374e-01  7.09762750e-01  1.00000000e+00  1.00000000e+00  3.34945995e-02
  2.34726947e-01  8.13757318e-01  1.00000000e+00  3.34945995e-02  2.34726947e-01
  8.13757318e-01  1.00000000e+00  1.83109981e-03  1.39500985e-02  6.84450927e-02
  2.32714275e-01  4.70192950e-01  3.58520862e-01 -1.10777504e-01 -1.48026305e-01
  1.13076704e+00  7.08742995e-02  3.39752798e-01  7.27158595e-01  1.00000000e+00
  1.00000000e+00  1.00000000e+00  1.00000000e+00  1.00000000e+00
Coordinates of each shell                  R   N=         444
 -1.91874379e+00 -1.25543455e+00  1.79557202e+00 -1.91874379e+00 -1.25543455e+00
  1.79557202e+00 -1.91874379e+00 -1.25543455e+00  1.79557202e+00 -1.91874379e+00
 -1.25543455e+00  1.79557202e+00 -1.91874379e+00 -1.25543455e+00  1.79557202e+00
 -1.91874379e+00 -1.25543455e+00  1.79557202e+00 -1.91874379e+00 -1.25543455e+00
  1.79557202e+00 -1.91874379e+00 -1.25543455e+00  1.79557202e+00 -3.85386360e+00
 -2.62876294e+00  3.36309714e+00 -3.85386360e+00 -2.62876294e+00  3.36309714e+00
 -3.85386360e+00 -2.62876294e+00  3.36309714e+00 -3.85386360e+00 -2.62876294e+00
  3.36309714e+00 -3.85386360e+00 -2.62876294e+00  3.36309714e+00 -3.85386360e+00
 -2.62876294e+00  3.36309714e+00 -3.85386360e+00 -2.62876294e+00  3.36309714e+00
 -3.85386360e+00 -2.62876294e+00  3.36309714e+00 -4.35211800e+00 -1.93216471e+00
  6.13661380e+00 -4.35211800e+00 -1.93216471e+00  6.13661380e+00 -4.35211800e+00
 -1.93216471e+00  6.13661380e+00 -4.35211800e+00 -1.93216471e+00  6.13661380e+00
 -4.35211800e+00 -1.93216471e+00  6.13661380e+00 -4.35211800e+00 -1.93216471e+00
  6.13661380e+00 -4.35211800e+00 -1.93216471e+00  6.13661380e+00 -4.35211800e+00
 -1.93216471e+00  6.13661380e+00 -6.28068110e+00 -3.43724198e+00  7.38951526e+00
 -6.28068110e+00 -3.43724198e+00  7.38951526e+00 -6.28068110e+00 -3.43724198e+00
  7.38951526e+00 -6.28068110e+00 -3.43724198e+00  7.38951526e+00 -6.28068110e+00
 -3.43724198e+00  7.38951526e+00 -6.28068110e+00 -3.43724198e+00  7.38951526e+00
 -6.28068110e+00 -3.43724198e+00  7.38951526e+00 -6.28068110e+00 -3.43724198e+00
  7.38951526e+00 -3.71563038e-01  7.60349844e-01  2.61593676e+00 -3.71563038e-01
  7.60349844e-01  2.61593676e+00 -3.71563038e-01  7.60349844e-01  2.61593676e+00
 -3.71563038e-01  7.60349844e-01  2.61593676e+00 -3.71563038e-01  7.60349844e-01
  2.61593676e+00 -3.71563038e-01  7.60349844e-01  2.61593676e+00 -3.71563038e-01
  7.60349844e-01  2.61593676e+00 -3.71563038e-01  7.60349844e-01  2.61593676e+00
  1.35359844e+00  1.85535979e+00  9.25518681e-01  1.35359844e+00  1.85535979e+00
  9.25518681e-01  1.35359844e+00  1.85535979e+00  9.25518681e-01  1.35359844e+00
  1.85535979e+00  9.25518681e-01  1.35359844e+00  1.85535979e+00  9.25518681e-01
  1.35359844e+00  1.85535979e+00  9.25518681e-01  1.35359844e+00  1.85535979e+00
  9.25518681e-01  1.35359844e+00  1.85535979e+00  9.25518681e-01  1.55024804e+00
  9.73584816e-01 -1.54178652e+00  1.55024804e+00  9.73584816e-01 -1.54178652e+00
  1.55024804e+00  9.73584816e-01 -1.54178652e+00  1.55024804e+00  9.73584816e-01
 -1.54178652e+00  1.55024804e+00  9.73584816e-01 -1.54178652e+00  1.55024804e+00
  9.73584816e-01 -1.54178652e+00  1.55024804e+00  9.73584816e-01 -1.54178652e+00
  1.55024804e+00  9.73584816e-01 -1.54178652e+00  3.60507989e-02 -1.02968709e+00
 -2.41276379e+00  3.60507989e-02 -1.02968709e+00 -2.41276379e+00  3.60507989e-02
 -1.02968709e+00 -2.41276379e+00  3.60507989e-02 -1.02968709e+00 -2.41276379e+00
  3.60507989e-02 -1.02968709e+00 -2.41276379e+00  3.60507989e-02 -1.02968709e+00
 -2.41276379e+00  3.60507989e-02 -1.02968709e+00 -2.41276379e+00  3.60507989e-02
 -1.02968709e+00 -2.41276379e+00 -1.66663163e+00 -2.09675796e+00 -7.13809832e-01
 -1.66663163e+00 -2.09675796e+00 -7.13809832e-01 -1.66663163e+00 -2.09675796e+00
 -7.13809832e-01 -1.66663163e+00 -2.09675796e+00 -7.13809832e-01 -1.66663163e+00
 -2.09675796e+00 -7.13809832e-01 -1.66663163e+00 -2.09675796e+00 -7.13809832e-01
 -1.66663163e+00 -2.09675796e+00 -7.13809832e-01 -1.66663163e+00 -2.09675796e+00
 -7.13809832e-01 -2.88380324e+00 -3.64479719e+00 -1.27367769e+00 -2.88380324e+00
 -3.64479719e+00 -1.27367769e+00 -5.80560314e+00 -5.30159747e+00  7.30899479e+00
 -5.80560314e+00 -5.30159747e+00  7.30899479e+00 -7.94066697e+00 -3.30349218e+00
  6.42277930e+00 -7.94066697e+00 -3.30349218e+00  6.42277930e+00  3.42915759e-01
 -1.78133560e+00 -4.85204426e+00  3.42915759e-01 -1.78133560e+00 -4.85204426e+00
  3.42915759e-01 -1.78133560e+00 -4.85204426e+00  3.42915759e-01 -1.78133560e+00
 -4.85204426e+00  3.42915759e-01 -1.78133560e+00 -4.85204426e+00  3.42915759e-01
 -1.78133560e+00 -4.85204426e+00  3.42915759e-01 -1.78133560e+00 -4.85204426e+00
  3.42915759e-01 -1.78133560e+00 -4.85204426e+00 -1.17516511e+00 -3.80748995e+00
 -5.76512351e+00 -1.17516511e+00 -3.80748995e+00 -5.76512351e+00 -1.17516511e+00
 -3.80748995e+00 -5.76512351e+00 -1.17516511e+00 -3.80748995e+00 -5.76512351e+00
 -1.17516511e+00 -3.80748995e+00 -5.76512351e+00 -1.17516511e+00 -3.80748995e+00
 -5.76512351e+00 -1.17516511e+00 -3.80748995e+00 -5.76512351e+00 -1.17516511e+00
 -3.80748995e+00 -5.76512351e+00 -6.10476432e-01 -4.07399608e+00 -7.72984622e+00
 -6.10476432e-01 -4.07399608e+00 -7.72984622e+00 -3.19178204e+00 -3.33300688e+00
 -5.67803268e+00 -3.19178204e+00 -3.33300688e+00 -5.67803268e+00 -8.23716415e-01
 -5.54947462e+00 -4.69674124e+00 -8.23716415e-01 -5.54947462e+00 -4.69674124e+00
  2.55819014e+00  3.40073827e+00  1.50954653e+00  2.55819014e+00  3.40073827e+00
  1.50954653e+00 -6.16587111e-01  1.57545282e+00  5.04996138e+00 -6.16587111e-01
  1.57545282e+00  5.04996138e+00 -6.16587111e-01  1.57545282e+00  5.04996138e+00
 -6.16587111e-01  1.57545282e+00  5.04996138e+00 -6.16587111e-01  1.57545282e+00
  5.04996138e+00 -6.16587111e-01  1.57545282e+00  5.04996138e+00 -6.16587111e-01
  1.57545282e+00  5.04996138e+00 -6.16587111e-01  1.57545282e+00  5.04996138e+00
  9.18811592e-01  3.60494334e+00  5.92803454e+00  9.18811592e-01  3.60494334e+00
  5.92803454e+00  9.18811592e-01  3.60494334e+00  5.92803454e+00  9.18811592e-01
  3.60494334e+00  5.92803454e+00  9.18811592e-01  3.60494334e+00  5.92803454e+00
  9.18811592e-01  3.60494334e+00  5.92803454e+00  9.18811592e-01  3.60494334e+00
  5.92803454e+00  9.18811592e-01  3.60494334e+00  5.92803454e+00  2.93213701e+00
  3.11976521e+00  5.83147807e+00  2.93213701e+00  3.11976521e+00  5.83147807e+00
  3.74575558e-01  3.89411401e+00  7.89557356e+00  3.74575558e-01  3.89411401e+00
  7.89557356e+00  5.60628068e-01  5.33880566e+00  4.84932666e+00  5.60628068e-01
  5.33880566e+00  4.84932666e+00  3.92360363e+00  2.52533480e+00 -3.76535113e+00
  3.92360363e+00  2.52533480e+00 -3.76535113e+00  3.92360363e+00  2.52533480e+00
 -3.76535113e+00  3.92360363e+00  2.52533480e+00 -3.76535113e+00  3.92360363e+00
  2.52533480e+00 -3.76535113e+00  3.92360363e+00  2.52533480e+00 -3.76535113e+00
  3.92360363e+00  2.52533480e+00 -3.76535113e+00  3.92360363e+00  2.52533480e+00
 -3.76535113e+00  3.92360363e+00  2.52533480e+00 -3.76535113e+00  3.92360363e+00
  2.52533480e+00 -3.76535113e+00  3.92360363e+00  2.52533480e+00 -3.76535113e+00
  3.92360363e+00  2.52533480e+00 -3.76535113e+00 -4.87011689e+00  7.13152244e-02
  6.23702679e+00 -4.87011689e+00  7.13152244e-02  6.23702679e+00 -2.57393318e+00
 -2.07799712e+00  7.18968097e+00 -2.57393318e+00 -2.07799712e+00  7.18968097e+00
 -5.07140572e+00 -4.35439556e+00  2.40414047e+00 -5.07140572e+00 -4.35439556e+00
  2.40414047e+00 -5.07140572e+00 -4.35439556e+00  2.40414047e+00 -5.07140572e+00
 -4.35439556e+00  2.40414047e+00 -5.07140572e+00 -4.35439556e+00  2.40414047e+00
 -5.07140572e+00 -4.35439556e+00  2.40414047e+00 -5.07140572e+00 -4.35439556e+00
  2.40414047e+00 -5.07140572e+00 -4.35439556e+00  2.40414047e+00
Total Energy                               R     -3.242449254906735e+03
Alpha Orbital Energies                     R   N=         325
 -4.82887014e+02 -6.25439154e+01 -5.63655195e+01 -5.63617374e+01 -5.63615096e+01
 -1.92092479e+01 -1.91997538e+01 -1.91496303e+01 -1.43199948e+01 -1.02844798e+01
 -1.02808474e+01 -1.02732774e+01 -1.02664520e+01 -1.02630662e+01 -1.02524960e+01
 -1.02208810e+01 -1.02196757e+01 -1.02183099e+01 -1.02129068e+01 -8.72368741e+00
 -6.55420608e+00 -6.54109744e+00 -6.54034788e+00 -2.62101953e+00 -2.61719368e+00
 -2.61665595e+00 -2.60626768e+00 -2.60626366e+00 -1.09380116e+00 -1.08511793e+00
 -1.04810941e+00 -8.87902628e-01 -8.84075512e-01 -8.26123249e-01 -7.80877943e-01
 -7.62350895e-01 -7.41391870e-01 -7.12117785e-01 -6.90363568e-01 -6.34593828e-01
 -6.15700859e-01 -5.76033998e-01 -5.41166103e-01 -5.30412752e-01 -5.28156005e-01
 -5.03083284e-01 -4.92526217e-01 -4.83374706e-01 -4.69016832e-01 -4.65205287e-01
 -4.62071238e-01 -4.50311639e-01 -4.30003594e-01 -4.24987129e-01 -4.23349590e-01
 -4.08337200e-01 -4.01962731e-01 -3.93177416e-01 -3.72743888e-01 -3.61697926e-01
 -3.58472229e-01 -3.47276572e-01 -3.31475232e-01 -3.05631491e-01 -2.96154007e-01
 -2.71088860e-01 -2.64025605e-01 -2.43261416e-01 -2.28066853e-01 -7.22225463e-02
 -1.69929983e-02 -1.12348614e-02 -5.76035492e-03  4.86724408e-03  1.03951540e-02
  2.11128532e-02  2.15247465e-02  2.44910864e-02  3.21082667e-02  3.85114258e-02
  4.43140737e-02  4.76239526e-02  5.59106767e-02  6.20862472e-02  7.21400655e-02
  7.45369860e-02  7.70882697e-02  8.38425915e-02  9.27614280e-02  9.80496410e-02
  1.04474844e-01  1.08348373e-01  1.16327689e-01  1.24811171e-01  1.26167965e-01
  1.32544082e-01  1.35156901e-01  1.35209540e-01  1.42067853e-01  1.46067234e-01
  1.50520303e-01  1.50693314e-01  1.60084823e-01  1.66855316e-01  1.71175885e-01
  1.74229424e-01  1.77013347e-01  1.78471736e-01  1.90512767e-01  1.91518408e-01
  1.97181474e-01  2.07888617e-01  2.12191424e-01  2.17633754e-01  2.23283708e-01
  2.25351760e-01  2.26579193e-01  2.34972950e-01  2.38774252e-01  2.41651805e-01
  2.45445050e-01  2.49690920e-01  2.56892526e-01  2.64112830e-01  2.67473486e-01
  2.71823818e-01  2.74070989e-01  2.81132338e-01  2.90366657e-01  2.94178399e-01