Generated by Psi4
     FORCE                           RHF                       TESTBAS
Number of atoms                            I               28
Charge                                     I                0
Multiplicity                               I                1
Number of electrons                        I              110
Number of alpha electrons                  I               55
Number of beta electrons                   I               55
Number of basis functions                  I              311
Number of independent functions            I              311
Atomic numbers                             I   N=          28
           6           6           6           7           6           6
           6           6           6           6           1           1
           1           1           6           1           1           1
           1           8           8           8           6           1
           1           1           1           1
Nuclear charges                            R   N=          28
  6.00000000e+00  6.00000000e+00  6.00000000e+00  7.00000000e+00  6.00000000e+00
  6.00000000e+00  6.00000000e+00  6.00000000e+00  6.00000000e+00  6.00000000e+00
  1.00000000e+00  1.00000000e+00  1.00000000e+00  1.00000000e+00  6.00000000e+00
  1.00000000e+00  1.00000000e+00  1.00000000e+00  1.00000000e+00  8.00000000e+00
  8.00000000e+00  8.00000000e+00  6.00000000e+00  1.00000000e+00  1.00000000e+00
  1.00000000e+00  1.00000000e+00  1.00000000e+00
Current cartesian coordinates              R   N=          84
 -8.54642716e-01  2.29933239e-01  6.35489497e-02 -3.51892422e+00  6.25966041e-01
  9.17321907e-01 -4.21045195e+00  1.47999791e+00  3.62730333e+00 -2.95375202e+00
  2.66693816e-02  5.62236420e+00  1.23906169e+00  3.44250861e-01  1.69553486e+00
  3.71877585e+00 -2.61787320e-04  8.08758476e-01  4.00836439e+00 -4.63063542e-01
 -1.74568375e+00  1.93876898e+00 -5.83008969e-01 -3.38215900e+00 -4.98108607e-01
 -2.47064058e-01 -2.55400633e+00 -3.64559954e+00  4.31347360e+00  3.94225674e+00
 -6.27967510e+00  1.22364971e+00  3.69115068e+00 -1.61467275e+00  4.69820322e+00
  3.86413081e+00 -4.36688187e+00  4.97964545e+00  5.76967784e+00 -4.58441861e+00
  5.40773999e+00  2.45855699e+00 -3.78814594e+00 -2.60611132e+00  5.78525076e+00
 -3.27033361e+00  9.05072846e-01  7.30556965e+00 -3.16758221e+00 -3.63995566e+00
  4.10186047e+00 -5.85958335e+00 -2.81643833e+00  5.93633806e+00 -2.90784887e+00
 -3.49805228e+00  7.43122728e+00 -5.26568601e+00  4.07962033e-01 -5.94053800e-01
  6.19871635e+00 -8.06106160e-01 -3.08250123e+00  2.79017756e+00 -9.84778064e-01
 -5.81354751e+00  5.41596943e+00 -1.57687184e+00 -5.56993438e+00  6.49448913e+00
 -5.24829852e-01 -6.97830068e+00  5.69112905e+00 -3.62583727e+00 -5.75977608e+00
 -2.11172027e+00 -3.20025790e-01 -3.81375009e+00  9.15072812e-01  6.37953831e-01
  3.69532718e+00  5.33350913e+00  8.47806894e-02  2.06972232e+00
Integer atomic weights                     I   N=          28
          12          12          12          14          12          12
          12          12          12          12           1           1
           1           1          12           1           1           1
           1          15          15          15          12           1
           1           1           1           1
Real atomic weights                        R   N=          28
  1.20000000e+01  1.20000000e+01  1.20000000e+01  1.40030740e+01  1.20000000e+01
  1.20000000e+01  1.20000000e+01  1.20000000e+01  1.20000000e+01  1.20000000e+01
  1.00782503e+00  1.00782503e+00  1.00782503e+00  1.00782503e+00  1.20000000e+01
  1.00782503e+00  1.00782503e+00  1.00782503e+00  1.00782503e+00  1.59949146e+01
  1.59949146e+01  1.59949146e+01  1.20000000e+01  1.00782503e+00  1.00782503e+00
  1.00782503e+00  1.00782503e+00  1.00782503e+00
Number of primitive shells                 I              307
Number of contracted shells                I              146
Pure/Cartesian d shells                    I                1
Pure/Cartesian f shells                    I                1
Highest angular momentum                   I                2
Largest degree of contraction              I                6
Shell types                                I   N=         146
           0           0           1           0           1           2
           0           1           0           0           1           0
           1           2           0           1           0           0
           1           0           1           2           0           1
           0           0           1           0           1           2
           0           1           0           0           1           0
           1           2           0           1           0           0
           1           0           1           2           0           1
           0           0           1           0           1           2
           0           1           0           0           1           0
           1           2           0           1           0           0
           1           0           1           2           0           1
           0           0           1           0           1           2
           0           1           0           0           0           0
           0           0           0           0           0           0
           1           0           1           2           0           1
           0           0           0           0           0           0
           0           0           0           0           1           0
           1           2           0           1           0           0
           1           0           1           2           0           1
           0           0           1           0           1           2
           0           1           0           0           1           0
           1           2           0           1           0           0
           0           0           0           0           0           0
           0           0
Number of primitives per shell             I   N=         146
           6           3           3           1           1           1
           1           1           6           3           3           1
           1           1           1           1           6           3
           3           1           1           1           1           1
           6           3           3           1           1           1
           1           1           6           3           3           1
           1           1           1           1           6           3
           3           1           1           1           1           1
           6           3           3           1           1           1
           1           1           6           3           3           1
           1           1           1           1           6           3
           3           1           1           1           1           1
           6           3           3           1           1           1
           1           1           3           1           3           1
           3           1           3           1           6           3
           3           1           1           1           1           1
           3           1           3           1           3           1
           3           1           6           3           3           1
           1           1           1           1           6           3
           3           1           1           1           1           1
           6           3           3           1           1           1
           1           1           6           3           3           1
           1           1           1           1           3           1
           3           1           3           1           3           1
           3           1
Shell to atom map                          I   N=         146
           1           1           1           1           1           1
           1           1           2           2           2           2
           2           2           2           2           3           3
           3           3           3           3           3           3
           4           4           4           4           4           4
           4           4           5           5           5           5
           5           5           5           5           6           6
           6           6           6           6           6           6
           7           7           7           7           7           7
           7           7           8           8           8           8
           8           8           8           8           9           9
           9           9           9           9           9           9
          10          10          10          10          10          10
          10          10          11          11          12          12
          13          13          14          14          15          15
          15          15          15          15          15          15
          16          16          17          17          18          18
          19          19          20          20          20          20
          20          20          20          20          21          21
          21          21          21          21          21          21
          22          22          22          22          22          22
          22          22          23          23          23          23
          23          23          23          23          24          24
          25          25          26          26          27          27
          28          28
Primitive exponents                        R   N=         307
  3.04752490e+03  4.57369510e+02  1.03948690e+02  2.92101550e+01  9.28666300e+00
  3.16392700e+00  7.86827240e+00  1.88128850e+00  5.44249300e-01  7.86827240e+00
  1.88128850e+00  5.44249300e-01  1.68714400e-01  1.68714400e-01  8.00000000e-01
  4.38000000e-02  4.38000000e-02  3.04752490e+03  4.57369510e+02  1.03948690e+02
  2.92101550e+01  9.28666300e+00  3.16392700e+00  7.86827240e+00  1.88128850e+00
  5.44249300e-01  7.86827240e+00  1.88128850e+00  5.44249300e-01  1.68714400e-01
  1.68714400e-01  8.00000000e-01  4.38000000e-02  4.38000000e-02  3.04752490e+03
  4.57369510e+02  1.03948690e+02  2.92101550e+01  9.28666300e+00  3.16392700e+00
  7.86827240e+00  1.88128850e+00  5.44249300e-01  7.86827240e+00  1.88128850e+00
  5.44249300e-01  1.68714400e-01  1.68714400e-01  8.00000000e-01  4.38000000e-02
  4.38000000e-02  4.17351100e+03  6.27457900e+02  1.42902100e+02  4.02343300e+01
  1.28202100e+01  4.39043700e+00  1.16263580e+01  2.71628000e+00  7.72218000e-01
  1.16263580e+01  2.71628000e+00  7.72218000e-01  2.12031300e-01  2.12031300e-01
  8.00000000e-01  6.39000000e-02  6.39000000e-02  3.04752490e+03  4.57369510e+02
  1.03948690e+02  2.92101550e+01  9.28666300e+00  3.16392700e+00  7.86827240e+00
  1.88128850e+00  5.44249300e-01  7.86827240e+00  1.88128850e+00  5.44249300e-01
  1.68714400e-01  1.68714400e-01  8.00000000e-01  4.38000000e-02  4.38000000e-02
  3.04752490e+03  4.57369510e+02  1.03948690e+02  2.92101550e+01  9.28666300e+00
  3.16392700e+00  7.86827240e+00  1.88128850e+00  5.44249300e-01  7.86827240e+00
  1.88128850e+00  5.44249300e-01  1.68714400e-01  1.68714400e-01  8.00000000e-01
  4.38000000e-02  4.38000000e-02  3.04752490e+03  4.57369510e+02  1.03948690e+02
  2.92101550e+01  9.28666300e+00  3.16392700e+00  7.86827240e+00  1.88128850e+00
  5.44249300e-01  7.86827240e+00  1.88128850e+00  5.44249300e-01  1.68714400e-01
  1.68714400e-01  8.00000000e-01  4.38000000e-02  4.38000000e-02  3.04752490e+03
  4.57369510e+02  1.03948690e+02  2.92101550e+01  9.28666300e+00  3.16392700e+00
  7.86827240e+00  1.88128850e+00  5.44249300e-01  7.86827240e+00  1.88128850e+00
  5.44249300e-01  1.68714400e-01  1.68714400e-01  8.00000000e-01  4.38000000e-02
  4.38000000e-02  3.04752490e+03  4.57369510e+02  1.03948690e+02  2.92101550e+01
  9.28666300e+00  3.16392700e+00  7.86827240e+00  1.88128850e+00  5.44249300e-01
  7.86827240e+00  1.88128850e+00  5.44249300e-01  1.68714400e-01  1.68714400e-01
  8.00000000e-01  4.38000000e-02  4.38000000e-02  3.04752490e+03  4.57369510e+02
  1.03948690e+02  2.92101550e+01  9.28666300e+00  3.16392700e+00  7.86827240e+00
  1.88128850e+00  5.44249300e-01  7.86827240e+00  1.88128850e+00  5.44249300e-01
  1.68714400e-01  1.68714400e-01  8.00000000e-01  4.38000000e-02  4.38000000e-02
  1.87311370e+01  2.82539370e+00  6.40121700e-01  1.61277800e-01  1.87311370e+01
  2.82539370e+00  6.40121700e-01  1.61277800e-01  1.87311370e+01  2.82539370e+00
  6.40121700e-01  1.61277800e-01  1.87311370e+01  2.82539370e+00  6.40121700e-01
  1.61277800e-01  3.04752490e+03  4.57369510e+02  1.03948690e+02  2.92101550e+01
  9.28666300e+00  3.16392700e+00  7.86827240e+00  1.88128850e+00  5.44249300e-01
  7.86827240e+00  1.88128850e+00  5.44249300e-01  1.68714400e-01  1.68714400e-01
  8.00000000e-01  4.38000000e-02  4.38000000e-02  1.87311370e+01  2.82539370e+00
  6.40121700e-01  1.61277800e-01  1.87311370e+01  2.82539370e+00  6.40121700e-01
  1.61277800e-01  1.87311370e+01  2.82539370e+00  6.40121700e-01  1.61277800e-01
  1.87311370e+01  2.82539370e+00  6.40121700e-01  1.61277800e-01  5.48467170e+03
  8.25234950e+02  1.88046960e+02  5.29645000e+01  1.68975700e+01  5.79963530e+00
  1.55396160e+01  3.59993360e+00  1.01376180e+00  1.55396160e+01  3.59993360e+00
  1.01376180e+00  2.70005800e-01  2.70005800e-01  8.00000000e-01  8.45000000e-02
  8.45000000e-02  5.48467170e+03  8.25234950e+02  1.88046960e+02  5.29645000e+01
  1.68975700e+01  5.79963530e+00  1.55396160e+01  3.59993360e+00  1.01376180e+00
  1.55396160e+01  3.59993360e+00  1.01376180e+00  2.70005800e-01  2.70005800e-01
  8.00000000e-01  8.45000000e-02  8.45000000e-02  5.48467170e+03  8.25234950e+02
  1.88046960e+02  5.29645000e+01  1.68975700e+01  5.79963530e+00  1.55396160e+01
  3.59993360e+00  1.01376180e+00  1.55396160e+01  3.59993360e+00  1.01376180e+00
  2.70005800e-01  2.70005800e-01  8.00000000e-01  8.45000000e-02  8.45000000e-02
  3.04752490e+03  4.57369510e+02  1.03948690e+02  2.92101550e+01  9.28666300e+00
  3.16392700e+00  7.86827240e+00  1.88128850e+00  5.44249300e-01  7.86827240e+00
  1.88128850e+00  5.44249300e-01  1.68714400e-01  1.68714400e-01  8.00000000e-01
  4.38000000e-02  4.38000000e-02  1.87311370e+01  2.82539370e+00  6.40121700e-01
  1.61277800e-01  1.87311370e+01  2.82539370e+00  6.40121700e-01  1.61277800e-01
  1.87311370e+01  2.82539370e+00  6.40121700e-01  1.61277800e-01  1.87311370e+01
  2.82539370e+00  6.40121700e-01  1.61277800e-01  1.87311370e+01  2.82539370e+00
  6.40121700e-01  1.61277800e-01
Contraction coefficients                   R   N=         307
  1.83470016e-03  1.40373012e-02  6.88426061e-02  2.32184421e-01  4.67941342e-01
  3.62312032e-01 -1.19332409e-01 -1.60854212e-01  1.14345648e+00  6.89990956e-02
  3.16423980e-01  7.44308252e-01  1.00000000e+00  1.00000000e+00  1.00000000e+00
  1.00000000e+00  1.00000000e+00  1.83470016e-03  1.40373012e-02  6.88426061e-02
  2.32184421e-01  4.67941342e-01  3.62312032e-01 -1.19332409e-01 -1.60854212e-01
  1.14345648e+00  6.89990956e-02  3.16423980e-01  7.44308252e-01  1.00000000e+00
  1.00000000e+00  1.00000000e+00  1.00000000e+00  1.00000000e+00  1.83470016e-03
  1.40373012e-02  6.88426061e-02  2.32184421e-01  4.67941342e-01  3.62312032e-01
 -1.19332409e-01 -1.60854212e-01  1.14345648e+00  6.89990956e-02  3.16423980e-01
  7.44308252e-01  1.00000000e+00  1.00000000e+00  1.00000000e+00  1.00000000e+00
  1.00000000e+00  1.83479944e-03  1.39949958e-02  6.85869792e-02  2.32240930e-01
  4.69069858e-01  3.60454891e-01 -1.14961023e-01 -1.69118034e-01  1.14585223e+00
  6.75800232e-02  3.23907111e-01  7.40895255e-01  1.00000000e+00  1.00000000e+00
  1.00000000e+00  1.00000000e+00  1.00000000e+00  1.83470016e-03  1.40373012e-02
  6.88426061e-02  2.32184421e-01  4.67941342e-01  3.62312032e-01 -1.19332409e-01
 -1.60854212e-01  1.14345648e+00  6.89990956e-02  3.16423980e-01  7.44308252e-01
  1.00000000e+00  1.00000000e+00  1.00000000e+00  1.00000000e+00  1.00000000e+00
  1.83470016e-03  1.40373012e-02  6.88426061e-02  2.32184421e-01  4.67941342e-01
  3.62312032e-01 -1.19332409e-01 -1.60854212e-01  1.14345648e+00  6.89990956e-02
  3.16423980e-01  7.44308252e-01  1.00000000e+00  1.00000000e+00  1.00000000e+00
  1.00000000e+00  1.00000000e+00  1.83470016e-03  1.40373012e-02  6.88426061e-02
  2.32184421e-01  4.67941342e-01  3.62312032e-01 -1.19332409e-01 -1.60854212e-01
  1.14345648e+00  6.89990956e-02  3.16423980e-01  7.44308252e-01  1.00000000e+00
  1.00000000e+00  1.00000000e+00  1.00000000e+00  1.00000000e+00  1.83470016e-03
  1.40373012e-02  6.88426061e-02  2.32184421e-01  4.67941342e-01  3.62312032e-01
 -1.19332409e-01 -1.60854212e-01  1.14345648e+00  6.89990956e-02  3.16423980e-01
  7.44308252e-01  1.00000000e+00  1.00000000e+00  1.00000000e+00  1.00000000e+00
  1.00000000e+00  1.83470016e-03  1.40373012e-02  6.88426061e-02  2.32184421e-01
  4.67941342e-01  3.62312032e-01 -1.19332409e-01 -1.60854212e-01  1.14345648e+00
  6.89990956e-02  3.16423980e-01  7.44308252e-01  1.00000000e+00  1.00000000e+00
  1.00000000e+00  1.00000000e+00  1.00000000e+00  1.83470016e-03  1.40373012e-02
  6.88426061e-02  2.32184421e-01  4.67941342e-01  3.62312032e-01 -1.19332409e-01
 -1.60854212e-01  1.14345648e+00  6.89990956e-02  3.16423980e-01  7.44308252e-01
  1.00000000e+00  1.00000000e+00  1.00000000e+00  1.00000000e+00  1.00000000e+00
  3.34945995e-02  2.34726947e-01  8.13757318e-01  1.00000000e+00  3.34945995e-02
  2.34726947e-01  8.13757318e-01  1.00000000e+00  3.34945995e-02  2.34726947e-01
  8.13757318e-01  1.00000000e+00  3.34945995e-02  2.34726947e-01  8.13757318e-01
  1.00000000e+00  1.83470016e-03  1.40373012e-02  6.88426061e-02  2.32184421e-01
  4.67941342e-01  3.62312032e-01 -1.19332409e-01 -1.60854212e-01  1.14345648e+00
  6.89990956e-02  3.16423980e-01  7.44308252e-01  1.00000000e+00  1.00000000e+00
  1.00000000e+00  1.00000000e+00  1.00000000e+00  3.34945995e-02  2.34726947e-01
  8.13757318e-01  1.00000000e+00  3.34945995e-02  2.34726947e-01  8.13757318e-01
  1.00000000e+00  3.34945995e-02  2.34726947e-01  8.13757318e-01  1.00000000e+00
  3.34945995e-02  2.34726947e-01  8.13757318e-01  1.00000000e+00  1.83109981e-03
  1.39500985e-02  6.84450927e-02  2.32714275e-01  4.70192950e-01  3.58520862e-01
 -1.10777504e-01 -1.48026305e-01  1.13076704e+00  7.08742995e-02  3.39752798e-01
  7.27158595e-01  1.00000000e+00  1.00000000e+00  1.00000000e+00  1.00000000e+00
  1.00000000e+00  1.83109981e-03  1.39500985e-02  6.84450927e-02  2.32714275e-01
  4.70192950e-01  3.58520862e-01 -1.10777504e-01 -1.48026305e-01  1.13076704e+00
  7.08742995e-02  3.39752798e-01  7.27158595e-01  1.00000000e+00  1.00000000e+00
  1.00000000e+00  1.00000000e+00  1.00000000e+00  1.83109981e-03  1.39500985e-02
  6.84450927e-02  2.32714275e-01  4.70192950e-01  3.58520862e-01 -1.10777504e-01
 -1.48026305e-01  1.13076704e+00  7.08742995e-02  3.39752798e-01  7.27158595e-01
  1.00000000e+00  1.00000000e+00  1.00000000e+00  1.00000000e+00  1.00000000e+00
  1.83470016e-03  1.40373012e-02  6.88426061e-02  2.32184421e-01  4.67941342e-01
  3.62312032e-01 -1.19332409e-01 -1.60854212e-01  1.14345648e+00  6.89990956e-02
  3.16423980e-01  7.44308252e-01  1.00000000e+00  1.00000000e+00  1.00000000e+00
  1.00000000e+00  1.00000000e+00  3.34945995e-02  2.34726947e-01  8.13757318e-01
  1.00000000e+00  3.34945995e-02  2.34726947e-01  8.13757318e-01  1.00000000e+00
  3.34945995e-02  2.34726947e-01  8.13757318e-01  1.00000000e+00  3.34945995e-02
  2.34726947e-01  8.13757318e-01  1.00000000e+00  3.34945995e-02  2.34726947e-01
  8.13757318e-01  1.00000000e+00
Coordinates of each shell                  R   N=         438
 -8.54642716e-01  2.29933239e-01  6.35489497e-02 -8.54642716e-01  2.29933239e-01
  6.35489497e-02 -8.54642716e-01  2.29933239e-01  6.35489497e-02 -8.54642716e-01
  2.29933239e-01  6.35489497e-02 -8.54642716e-01  2.29933239e-01  6.35489497e-02
 -8.54642716e-01  2.29933239e-01  6.35489497e-02 -8.54642716e-01  2.29933239e-01
  6.35489497e-02 -8.54642716e-01  2.29933239e-01  6.35489497e-02 -3.51892422e+00
  6.25966041e-01  9.17321907e-01 -3.51892422e+00  6.25966041e-01  9.17321907e-01
 -3.51892422e+00  6.25966041e-01  9.17321907e-01 -3.51892422e+00  6.25966041e-01
  9.17321907e-01 -3.51892422e+00  6.25966041e-01  9.17321907e-01 -3.51892422e+00
  6.25966041e-01  9.17321907e-01 -3.51892422e+00  6.25966041e-01  9.17321907e-01
 -3.51892422e+00  6.25966041e-01  9.17321907e-01 -4.21045195e+00  1.47999791e+00
  3.62730333e+00 -4.21045195e+00  1.47999791e+00  3.62730333e+00 -4.21045195e+00
  1.47999791e+00  3.62730333e+00 -4.21045195e+00  1.47999791e+00  3.62730333e+00
 -4.21045195e+00  1.47999791e+00  3.62730333e+00 -4.21045195e+00  1.47999791e+00
  3.62730333e+00 -4.21045195e+00  1.47999791e+00  3.62730333e+00 -4.21045195e+00
  1.47999791e+00  3.62730333e+00 -2.95375202e+00  2.66693816e-02  5.62236420e+00
 -2.95375202e+00  2.66693816e-02  5.62236420e+00 -2.95375202e+00  2.66693816e-02
  5.62236420e+00 -2.95375202e+00  2.66693816e-02  5.62236420e+00 -2.95375202e+00
  2.66693816e-02  5.62236420e+00 -2.95375202e+00  2.66693816e-02  5.62236420e+00
 -2.95375202e+00  2.66693816e-02  5.62236420e+00 -2.95375202e+00  2.66693816e-02
  5.62236420e+00  1.23906169e+00  3.44250861e-01  1.69553486e+00  1.23906169e+00
  3.44250861e-01  1.69553486e+00  1.23906169e+00  3.44250861e-01  1.69553486e+00
  1.23906169e+00  3.44250861e-01  1.69553486e+00  1.23906169e+00  3.44250861e-01
  1.69553486e+00  1.23906169e+00  3.44250861e-01  1.69553486e+00  1.23906169e+00
  3.44250861e-01  1.69553486e+00  1.23906169e+00  3.44250861e-01  1.69553486e+00
  3.71877585e+00 -2.61787320e-04  8.08758476e-01  3.71877585e+00 -2.61787320e-04
  8.08758476e-01  3.71877585e+00 -2.61787320e-04  8.08758476e-01  3.71877585e+00
 -2.61787320e-04  8.08758476e-01  3.71877585e+00 -2.61787320e-04  8.08758476e-01
  3.71877585e+00 -2.61787320e-04  8.08758476e-01  3.71877585e+00 -2.61787320e-04
  8.08758476e-01  3.71877585e+00 -2.61787320e-04  8.08758476e-01  4.00836439e+00
 -4.63063542e-01 -1.74568375e+00  4.00836439e+00 -4.63063542e-01 -1.74568375e+00
  4.00836439e+00 -4.63063542e-01 -1.74568375e+00  4.00836439e+00 -4.63063542e-01
 -1.74568375e+00  4.00836439e+00 -4.63063542e-01 -1.74568375e+00  4.00836439e+00
 -4.63063542e-01 -1.74568375e+00  4.00836439e+00 -4.63063542e-01 -1.74568375e+00
  4.00836439e+00 -4.63063542e-01 -1.74568375e+00  1.93876898e+00 -5.83008969e-01
 -3.38215900e+00  1.93876898e+00 -5.83008969e-01 -3.38215900e+00  1.93876898e+00
 -5.83008969e-01 -3.38215900e+00  1.93876898e+00 -5.83008969e-01 -3.38215900e+00
  1.93876898e+00 -5.83008969e-01 -3.38215900e+00  1.93876898e+00 -5.83008969e-01
 -3.38215900e+00  1.93876898e+00 -5.83008969e-01 -3.38215900e+00  1.93876898e+00
 -5.83008969e-01 -3.38215900e+00 -4.98108607e-01 -2.47064058e-01 -2.55400633e+00
 -4.98108607e-01 -2.47064058e-01 -2.55400633e+00 -4.98108607e-01 -2.47064058e-01
 -2.55400633e+00 -4.98108607e-01 -2.47064058e-01 -2.55400633e+00 -4.98108607e-01
 -2.47064058e-01 -2.55400633e+00 -4.98108607e-01 -2.47064058e-01 -2.55400633e+00
 -4.98108607e-01 -2.47064058e-01 -2.55400633e+00 -4.98108607e-01 -2.47064058e-01
 -2.55400633e+00 -3.64559954e+00  4.31347360e+00  3.94225674e+00 -3.64559954e+00
  4.31347360e+00  3.94225674e+00 -3.64559954e+00  4.31347360e+00  3.94225674e+00
 -3.64559954e+00  4.31347360e+00  3.94225674e+00 -3.64559954e+00  4.31347360e+00
  3.94225674e+00 -3.64559954e+00  4.31347360e+00  3.94225674e+00 -3.64559954e+00
  4.31347360e+00  3.94225674e+00 -3.64559954e+00  4.31347360e+00  3.94225674e+00
 -6.27967510e+00  1.22364971e+00  3.69115068e+00 -6.27967510e+00  1.22364971e+00
  3.69115068e+00 -1.61467275e+00  4.69820322e+00  3.86413081e+00 -1.61467275e+00
  4.69820322e+00  3.86413081e+00 -4.36688187e+00  4.97964545e+00  5.76967784e+00
 -4.36688187e+00  4.97964545e+00  5.76967784e+00 -4.58441861e+00  5.40773999e+00
  2.45855699e+00 -4.58441861e+00  5.40773999e+00  2.45855699e+00 -3.78814594e+00
 -2.60611132e+00  5.78525076e+00 -3.78814594e+00 -2.60611132e+00  5.78525076e+00
 -3.78814594e+00 -2.60611132e+00  5.78525076e+00 -3.78814594e+00 -2.60611132e+00
  5.78525076e+00 -3.78814594e+00 -2.60611132e+00  5.78525076e+00 -3.78814594e+00
 -2.60611132e+00  5.78525076e+00 -3.78814594e+00 -2.60611132e+00  5.78525076e+00
 -3.78814594e+00 -2.60611132e+00  5.78525076e+00 -3.27033361e+00  9.05072846e-01
  7.30556965e+00 -3.27033361e+00  9.05072846e-01  7.30556965e+00 -3.16758221e+00
 -3.63995566e+00  4.10186047e+00 -3.16758221e+00 -3.63995566e+00  4.10186047e+00
 -5.85958335e+00 -2.81643833e+00  5.93633806e+00 -5.85958335e+00 -2.81643833e+00
  5.93633806e+00 -2.90784887e+00 -3.49805228e+00  7.43122728e+00 -2.90784887e+00
 -3.49805228e+00  7.43122728e+00 -5.26568601e+00  4.07962033e-01 -5.94053800e-01
 -5.26568601e+00  4.07962033e-01 -5.94053800e-01 -5.26568601e+00  4.07962033e-01
 -5.94053800e-01 -5.26568601e+00  4.07962033e-01 -5.94053800e-01 -5.26568601e+00
  4.07962033e-01 -5.94053800e-01 -5.26568601e+00  4.07962033e-01 -5.94053800e-01
 -5.26568601e+00  4.07962033e-01 -5.94053800e-01 -5.26568601e+00  4.07962033e-01
 -5.94053800e-01  6.19871635e+00 -8.06106160e-01 -3.08250123e+00  6.19871635e+00
 -8.06106160e-01 -3.08250123e+00  6.19871635e+00 -8.06106160e-01 -3.08250123e+00
  6.19871635e+00 -8.06106160e-01 -3.08250123e+00  6.19871635e+00 -8.06106160e-01
 -3.08250123e+00  6.19871635e+00 -8.06106160e-01 -3.08250123e+00  6.19871635e+00
 -8.06106160e-01 -3.08250123e+00  6.19871635e+00 -8.06106160e-01 -3.08250123e+00
  2.79017756e+00 -9.84778064e-01 -5.81354751e+00  2.79017756e+00 -9.84778064e-01
 -5.81354751e+00  2.79017756e+00 -9.84778064e-01 -5.81354751e+00  2.79017756e+00
 -9.84778064e-01 -5.81354751e+00  2.79017756e+00 -9.84778064e-01 -5.81354751e+00
  2.79017756e+00 -9.84778064e-01 -5.81354751e+00  2.79017756e+00 -9.84778064e-01
 -5.81354751e+00  2.79017756e+00 -9.84778064e-01 -5.81354751e+00  5.41596943e+00
 -1.57687184e+00 -5.56993438e+00  5.41596943e+00 -1.57687184e+00 -5.56993438e+00
  5.41596943e+00 -1.57687184e+00 -5.56993438e+00  5.41596943e+00 -1.57687184e+00
 -5.56993438e+00  5.41596943e+00 -1.57687184e+00 -5.56993438e+00  5.41596943e+00
 -1.57687184e+00 -5.56993438e+00  5.41596943e+00 -1.57687184e+00 -5.56993438e+00
  5.41596943e+00 -1.57687184e+00 -5.56993438e+00  6.49448913e+00 -5.24829852e-01
 -6.97830068e+00  6.49448913e+00 -5.24829852e-01 -6.97830068e+00  5.69112905e+00
 -3.62583727e+00 -5.75977608e+00  5.69112905e+00 -3.62583727e+00 -5.75977608e+00
 -2.11172027e+00 -3.20025790e-01 -3.81375009e+00 -2.11172027e+00 -3.20025790e-01
 -3.81375009e+00  9.15072812e-01  6.37953831e-01  3.69532718e+00  9.15072812e-01
  6.37953831e-01  3.69532718e+00  5.33350913e+00  8.47806894e-02  2.06972232e+00
  5.33350913e+00  8.47806894e-02  2.06972232e+00
Total Energy                               R     -7.074139645233686e+02
Alpha Orbital Energies                     R   N=         311
 -1.92151168e+01 -1.92092197e+01 -1.91428870e+01 -1.43385819e+01 -1.03195350e+01
 -1.02783248e+01 -1.02700501e+01 -1.02630092e+01 -1.02292896e+01 -1.02123106e+01
 -1.02102369e+01 -1.02091521e+01 -1.02067386e+01 -1.02051661e+01 -1.01931912e+01
 -1.14334035e+00 -1.05192304e+00 -1.04083820e+00 -9.18871177e-01 -8.74175735e-01
 -7.84575635e-01 -7.67941463e-01 -7.65682600e-01 -6.98993133e-01 -6.70958257e-01
 -6.56783591e-01 -6.37360158e-01 -6.30186961e-01 -5.68372270e-01 -5.37581827e-01
 -5.31156998e-01 -5.24734210e-01 -5.00461956e-01 -4.90383505e-01 -4.69727336e-01
 -4.57904147e-01 -4.55649753e-01 -4.41432804e-01 -4.29172747e-01 -4.25314231e-01
 -4.11696397e-01 -4.04459198e-01 -4.01305002e-01 -3.99980962e-01 -3.91917543e-01
 -3.79975201e-01 -3.77035352e-01 -3.69690030e-01 -3.61024372e-01 -3.55075715e-01
 -3.22341909e-01 -2.60419379e-01 -2.56857090e-01 -2.38371510e-01 -2.26350046e-01
 -6.24749283e-02 -1.59557187e-02 -2.11580201e-03  6.92009230e-03  1.58279512e-02
  1.88138674e-02  2.35429711e-02  2.99068141e-02  3.35935850e-02  3.81384943e-02
  4.14090100e-02  4.34887333e-02  5.51050260e-02  6.18557642e-02  6.30251988e-02
  6.48042202e-02  7.82198662e-02  8.18777243e-02  8.47816868e-02  9.14723925e-02
  9.88186369e-02  1.06258458e-01  1.08884033e-01  1.13076214e-01  1.17966362e-01
  1.23762025e-01  1.27589742e-01  1.32150341e-01  1.34394294e-01  1.36799015e-01
  1.44840078e-01  1.52605330e-01  1.54442676e-01  1.59228505e-01  1.63542892e-01
  1.67600939e-01  1.69414538e-01  1.80438136e-01  1.88146954e-01  1.90591480e-01
  1.91797103e-01  1.99744713e-01  2.03510415e-01  2.06011979e-01  2.10472175e-01
  2.13705624e-01  2.15993374e-01  2.19410951e-01  2.29077647e-01  2.30582557e-01
  2.34770825e-01  2.37488442e-01  2.43243196e-01  2.44827229e-01  2.49334455e-01
  2.56254147e-01  2.61961513e-01  2.66149211e-01  2.70232457e-01  2.76644054e-01
  2.78356257e-01  2.87856502e-01  2.90262042e-01  2.95474585e-01  2.96867159e-01
  2.98893646e-01  3.06246848e-01  3.08713866e-01  3.17569943e-01  3.22061307e-01
  3.24667490e-01  3.29775963e-01  3.36827068e-01  3.39645421e-01  3.49876803e-01
  3.53168013e-01  3.59811745e-01  3.74163911e-01  3.76733132e-01  3.77456972e-01
  3.89462434e-01  3.95954753e-01  4.09959944e-01  4.18466987e-01  4.33793480e-01
  4.37436302e-01  4.47363062e-01  4.57459112e-01  4.65493825e-01  4.82370217e-01
  5.24568728e-01  5.97966905e-01  6.31803907e-01  6.34741435e-01  6.58636683e-01
  6.70269990e-01  6.88039623e-01  6.91027267e-01  6.96920042e-01  7.00740373e-01
  7.11139205e-01  7.21368336e-01  7.34352135e-01  7.36118926e-01  7.53242724e-01
  7.61188345e-01  7.77732404e-01  7.88709913e-01  8.02437824e-01  8.08599239e-01
  8.15228281e-01  8.20500523e-01  8.37557140e-01  8.41745198e-01  8.51619247e-01
  8.84680595e-01  8.86031619e-01  8.97346296e-01  9.07993109e-01  9.15082962e-01