Generated by Psi4
     FORCE                           RHF                       TESTBAS
Number of atoms                            I               31
Charge                                     I                0
Multiplicity                               I                1
Number of electrons                        I              118
Number of alpha electrons                  I               59
Number of beta electrons                   I               59
Number of basis functions                  I              334
Number of independent functions            I              334
Atomic numbers                             I   N=          31
           6           6           6           7           6           6
           6           6           6           1           1           6
           1           6           1           1           1           1
           8           8           8           6           1           1
           1           1           1           1           6           1
           1
Nuclear charges                            R   N=          31
  6.00000000e+00  6.00000000e+00  6.00000000e+00  7.00000000e+00  6.00000000e+00
  6.00000000e+00  6.00000000e+00  6.00000000e+00  6.00000000e+00  1.00000000e+00
  1.00000000e+00  6.00000000e+00  1.00000000e+00  6.00000000e+00  1.00000000e+00
  1.00000000e+00  1.00000000e+00  1.00000000e+00  8.00000000e+00  8.00000000e+00
  8.00000000e+00  6.00000000e+00  1.00000000e+00  1.00000000e+00  1.00000000e+00
  1.00000000e+00  1.00000000e+00  1.00000000e+00  6.00000000e+00  1.00000000e+00
  1.00000000e+00
Current cartesian coordinates              R   N=          93
 -5.39931742e-01 -1.21128020e-01 -3.46928084e-01 -3.19893078e+00  5.32178229e-01
  3.52475938e-01 -3.92111645e+00  1.71395962e+00  2.92634589e+00 -2.82981058e+00
  3.96171195e-01  5.10398751e+00  1.50384260e+00  5.41900191e-02  1.34199565e+00
  3.98322237e+00 -5.39129284e-01  5.97359554e-01  4.32369143e+00 -1.31103216e+00
 -1.87470834e+00  2.30395272e+00 -1.49375591e+00 -3.56671614e+00 -1.31326410e-01
 -9.17580395e-01 -2.87764760e+00  1.13597634e+00  5.95319731e-01  3.28156851e+00
  5.55912225e+00 -4.06438008e-01  1.90264660e+00 -3.20180710e+00  4.54571598e+00
  2.92570545e+00 -6.00607212e+00  1.59326747e+00  2.93481813e+00 -3.81142813e+00
 -2.16640634e+00  5.46303064e+00 -3.18137412e+00  1.42862644e+00  6.68678204e+00
 -3.17032668e+00 -3.38566069e+00  3.91715574e+00 -5.89605597e+00 -2.25784209e+00
  5.52573368e+00 -3.05954901e+00 -2.94034115e+00  7.22826740e+00 -4.90356092e+00
  2.66516830e-01 -1.19958500e+00  6.52895642e+00 -1.93823088e+00 -3.07769425e+00
  3.20514700e+00 -2.22452794e+00 -5.90196132e+00 -4.34501268e+00  6.04570208e+00
  5.13047968e+00 -3.87443683e+00  5.36273291e+00  1.14318797e+00 -1.13794170e+00
  4.73547044e+00  2.93535794e+00 -6.40752754e+00  5.83998468e+00  5.18729230e+00
 -3.91861915e+00  8.06254410e+00  4.92696613e+00 -3.59067763e+00  5.45719817e+00
  6.97000601e+00 -1.70554711e+00 -1.03698695e+00 -4.18290603e+00  5.77670024e+00
 -2.94651747e+00 -5.48815427e+00  5.92036644e+00 -5.01676961e+00 -5.42848757e+00
  6.96733141e+00 -2.13738709e+00 -6.96487835e+00
Integer atomic weights                     I   N=          31
          12          12          12          14          12          12
          12          12          12           1           1          12
           1          12           1           1           1           1
          15          15          15          12           1           1
           1           1           1           1          12           1
           1
Real atomic weights                        R   N=          31
  1.20000000e+01  1.20000000e+01  1.20000000e+01  1.40030740e+01  1.20000000e+01
  1.20000000e+01  1.20000000e+01  1.20000000e+01  1.20000000e+01  1.00782503e+00
  1.00782503e+00  1.20000000e+01  1.00782503e+00  1.20000000e+01  1.00782503e+00
  1.00782503e+00  1.00782503e+00  1.00782503e+00  1.59949146e+01  1.59949146e+01
  1.59949146e+01  1.20000000e+01  1.00782503e+00  1.00782503e+00  1.00782503e+00
  1.00782503e+00  1.00782503e+00  1.00782503e+00  1.20000000e+01  1.00782503e+00
  1.00782503e+00
Number of primitive shells                 I              332
Number of contracted shells                I              158
Pure/Cartesian d shells                    I                1
Pure/Cartesian f shells                    I                1
Highest angular momentum                   I                2
Largest degree of contraction              I                6
Shell types                                I   N=         158
           0           0           1           0           1           2
           0           1           0           0           1           0
           1           2           0           1           0           0
           1           0           1           2           0           1
           0           0           1           0           1           2
           0           1           0           0           1           0
           1           2           0           1           0           0
           1           0           1           2           0           1
           0           0           1           0           1           2
           0           1           0           0           1           0
           1           2           0           1           0           0
           1           0           1           2           0           1
           0           0           0           0           0           0
           1           0           1           2           0           1
           0           0           0           0           1           0
           1           2           0           1           0           0
           0           0           0           0           0           0
           0           0           1           0           1           2
           0           1           0           0           1           0
           1           2           0           1           0           0
           1           0           1           2           0           1
           0           0           1           0           1           2
           0           1           0           0           0           0
           0           0           0           0           0           0
           0           0           0           0           1           0
           1           2           0           1           0           0
           0           0
Number of primitives per shell             I   N=         158
           6           3           3           1           1           1
           1           1           6           3           3           1
           1           1           1           1           6           3
           3           1           1           1           1           1
           6           3           3           1           1           1
           1           1           6           3           3           1
           1           1           1           1           6           3
           3           1           1           1           1           1
           6           3           3           1           1           1
           1           1           6           3           3           1
           1           1           1           1           6           3
           3           1           1           1           1           1
           3           1           3           1           6           3
           3           1           1           1           1           1
           3           1           6           3           3           1
           1           1           1           1           3           1
           3           1           3           1           3           1
           6           3           3           1           1           1
           1           1           6           3           3           1
           1           1           1           1           6           3
           3           1           1           1           1           1
           6           3           3           1           1           1
           1           1           3           1           3           1
           3           1           3           1           3           1
           3           1           6           3           3           1
           1           1           1           1           3           1
           3           1
Shell to atom map                          I   N=         158
           1           1           1           1           1           1
           1           1           2           2           2           2
           2           2           2           2           3           3
           3           3           3           3           3           3
           4           4           4           4           4           4
           4           4           5           5           5           5
           5           5           5           5           6           6
           6           6           6           6           6           6
           7           7           7           7           7           7
           7           7           8           8           8           8
           8           8           8           8           9           9
           9           9           9           9           9           9
          10          10          11          11          12          12
          12          12          12          12          12          12
          13          13          14          14          14          14
          14          14          14          14          15          15
          16          16          17          17          18          18
          19          19          19          19          19          19
          19          19          20          20          20          20
          20          20          20          20          21          21
          21          21          21          21          21          21
          22          22          22          22          22          22
          22          22          23          23          24          24
          25          25          26          26          27          27
          28          28          29          29          29          29
          29          29          29          29          30          30
          31          31
Primitive exponents                        R   N=         332
  3.04752490e+03  4.57369510e+02  1.03948690e+02  2.92101550e+01  9.28666300e+00
  3.16392700e+00  7.86827240e+00  1.88128850e+00  5.44249300e-01  7.86827240e+00
  1.88128850e+00  5.44249300e-01  1.68714400e-01  1.68714400e-01  8.00000000e-01
  4.38000000e-02  4.38000000e-02  3.04752490e+03  4.57369510e+02  1.03948690e+02
  2.92101550e+01  9.28666300e+00  3.16392700e+00  7.86827240e+00  1.88128850e+00
  5.44249300e-01  7.86827240e+00  1.88128850e+00  5.44249300e-01  1.68714400e-01
  1.68714400e-01  8.00000000e-01  4.38000000e-02  4.38000000e-02  3.04752490e+03
  4.57369510e+02  1.03948690e+02  2.92101550e+01  9.28666300e+00  3.16392700e+00
  7.86827240e+00  1.88128850e+00  5.44249300e-01  7.86827240e+00  1.88128850e+00
  5.44249300e-01  1.68714400e-01  1.68714400e-01  8.00000000e-01  4.38000000e-02
  4.38000000e-02  4.17351100e+03  6.27457900e+02  1.42902100e+02  4.02343300e+01
  1.28202100e+01  4.39043700e+00  1.16263580e+01  2.71628000e+00  7.72218000e-01
  1.16263580e+01  2.71628000e+00  7.72218000e-01  2.12031300e-01  2.12031300e-01
  8.00000000e-01  6.39000000e-02  6.39000000e-02  3.04752490e+03  4.57369510e+02
  1.03948690e+02  2.92101550e+01  9.28666300e+00  3.16392700e+00  7.86827240e+00
  1.88128850e+00  5.44249300e-01  7.86827240e+00  1.88128850e+00  5.44249300e-01
  1.68714400e-01  1.68714400e-01  8.00000000e-01  4.38000000e-02  4.38000000e-02
  3.04752490e+03  4.57369510e+02  1.03948690e+02  2.92101550e+01  9.28666300e+00
  3.16392700e+00  7.86827240e+00  1.88128850e+00  5.44249300e-01  7.86827240e+00
  1.88128850e+00  5.44249300e-01  1.68714400e-01  1.68714400e-01  8.00000000e-01
  4.38000000e-02  4.38000000e-02  3.04752490e+03  4.57369510e+02  1.03948690e+02
  2.92101550e+01  9.28666300e+00  3.16392700e+00  7.86827240e+00  1.88128850e+00
  5.44249300e-01  7.86827240e+00  1.88128850e+00  5.44249300e-01  1.68714400e-01
  1.68714400e-01  8.00000000e-01  4.38000000e-02  4.38000000e-02  3.04752490e+03
  4.57369510e+02  1.03948690e+02  2.92101550e+01  9.28666300e+00  3.16392700e+00
  7.86827240e+00  1.88128850e+00  5.44249300e-01  7.86827240e+00  1.88128850e+00
  5.44249300e-01  1.68714400e-01  1.68714400e-01  8.00000000e-01  4.38000000e-02
  4.38000000e-02  3.04752490e+03  4.57369510e+02  1.03948690e+02  2.92101550e+01
  9.28666300e+00  3.16392700e+00  7.86827240e+00  1.88128850e+00  5.44249300e-01
  7.86827240e+00  1.88128850e+00  5.44249300e-01  1.68714400e-01  1.68714400e-01
  8.00000000e-01  4.38000000e-02  4.38000000e-02  1.87311370e+01  2.82539370e+00
  6.40121700e-01  1.61277800e-01  1.87311370e+01  2.82539370e+00  6.40121700e-01
  1.61277800e-01  3.04752490e+03  4.57369510e+02  1.03948690e+02  2.92101550e+01
  9.28666300e+00  3.16392700e+00  7.86827240e+00  1.88128850e+00  5.44249300e-01
  7.86827240e+00  1.88128850e+00  5.44249300e-01  1.68714400e-01  1.68714400e-01
  8.00000000e-01  4.38000000e-02  4.38000000e-02  1.87311370e+01  2.82539370e+00
  6.40121700e-01  1.61277800e-01  3.04752490e+03  4.57369510e+02  1.03948690e+02
  2.92101550e+01  9.28666300e+00  3.16392700e+00  7.86827240e+00  1.88128850e+00
  5.44249300e-01  7.86827240e+00  1.88128850e+00  5.44249300e-01  1.68714400e-01
  1.68714400e-01  8.00000000e-01  4.38000000e-02  4.38000000e-02  1.87311370e+01
  2.82539370e+00  6.40121700e-01  1.61277800e-01  1.87311370e+01  2.82539370e+00
  6.40121700e-01  1.61277800e-01  1.87311370e+01  2.82539370e+00  6.40121700e-01
  1.61277800e-01  1.87311370e+01  2.82539370e+00  6.40121700e-01  1.61277800e-01
  5.48467170e+03  8.25234950e+02  1.88046960e+02  5.29645000e+01  1.68975700e+01
  5.79963530e+00  1.55396160e+01  3.59993360e+00  1.01376180e+00  1.55396160e+01
  3.59993360e+00  1.01376180e+00  2.70005800e-01  2.70005800e-01  8.00000000e-01
  8.45000000e-02  8.45000000e-02  5.48467170e+03  8.25234950e+02  1.88046960e+02
  5.29645000e+01  1.68975700e+01  5.79963530e+00  1.55396160e+01  3.59993360e+00
  1.01376180e+00  1.55396160e+01  3.59993360e+00  1.01376180e+00  2.70005800e-01
  2.70005800e-01  8.00000000e-01  8.45000000e-02  8.45000000e-02  5.48467170e+03
  8.25234950e+02  1.88046960e+02  5.29645000e+01  1.68975700e+01  5.79963530e+00
  1.55396160e+01  3.59993360e+00  1.01376180e+00  1.55396160e+01  3.59993360e+00
  1.01376180e+00  2.70005800e-01  2.70005800e-01  8.00000000e-01  8.45000000e-02
  8.45000000e-02  3.04752490e+03  4.57369510e+02  1.03948690e+02  2.92101550e+01
  9.28666300e+00  3.16392700e+00  7.86827240e+00  1.88128850e+00  5.44249300e-01
  7.86827240e+00  1.88128850e+00  5.44249300e-01  1.68714400e-01  1.68714400e-01
  8.00000000e-01  4.38000000e-02  4.38000000e-02  1.87311370e+01  2.82539370e+00
  6.40121700e-01  1.61277800e-01  1.87311370e+01  2.82539370e+00  6.40121700e-01
  1.61277800e-01  1.87311370e+01  2.82539370e+00  6.40121700e-01  1.61277800e-01
  1.87311370e+01  2.82539370e+00  6.40121700e-01  1.61277800e-01  1.87311370e+01
  2.82539370e+00  6.40121700e-01  1.61277800e-01  1.87311370e+01  2.82539370e+00
  6.40121700e-01  1.61277800e-01  3.04752490e+03  4.57369510e+02  1.03948690e+02
  2.92101550e+01  9.28666300e+00  3.16392700e+00  7.86827240e+00  1.88128850e+00
  5.44249300e-01  7.86827240e+00  1.88128850e+00  5.44249300e-01  1.68714400e-01
  1.68714400e-01  8.00000000e-01  4.38000000e-02  4.38000000e-02  1.87311370e+01
  2.82539370e+00  6.40121700e-01  1.61277800e-01  1.87311370e+01  2.82539370e+00
  6.40121700e-01  1.61277800e-01
Contraction coefficients                   R   N=         332
  1.83470016e-03  1.40373012e-02  6.88426061e-02  2.32184421e-01  4.67941342e-01
  3.62312032e-01 -1.19332409e-01 -1.60854212e-01  1.14345648e+00  6.89990956e-02
  3.16423980e-01  7.44308252e-01  1.00000000e+00  1.00000000e+00  1.00000000e+00
  1.00000000e+00  1.00000000e+00  1.83470016e-03  1.40373012e-02  6.88426061e-02
  2.32184421e-01  4.67941342e-01  3.62312032e-01 -1.19332409e-01 -1.60854212e-01
  1.14345648e+00  6.89990956e-02  3.16423980e-01  7.44308252e-01  1.00000000e+00
  1.00000000e+00  1.00000000e+00  1.00000000e+00  1.00000000e+00  1.83470016e-03
  1.40373012e-02  6.88426061e-02  2.32184421e-01  4.67941342e-01  3.62312032e-01
 -1.19332409e-01 -1.60854212e-01  1.14345648e+00  6.89990956e-02  3.16423980e-01
  7.44308252e-01  1.00000000e+00  1.00000000e+00  1.00000000e+00  1.00000000e+00
  1.00000000e+00  1.83479944e-03  1.39949958e-02  6.85869792e-02  2.32240930e-01
  4.69069858e-01  3.60454891e-01 -1.14961023e-01 -1.69118034e-01  1.14585223e+00
  6.75800232e-02  3.23907111e-01  7.40895255e-01  1.00000000e+00  1.00000000e+00
  1.00000000e+00  1.00000000e+00  1.00000000e+00  1.83470016e-03  1.40373012e-02
  6.88426061e-02  2.32184421e-01  4.67941342e-01  3.62312032e-01 -1.19332409e-01
 -1.60854212e-01  1.14345648e+00  6.89990956e-02  3.16423980e-01  7.44308252e-01
  1.00000000e+00  1.00000000e+00  1.00000000e+00  1.00000000e+00  1.00000000e+00
  1.83470016e-03  1.40373012e-02  6.88426061e-02  2.32184421e-01  4.67941342e-01
  3.62312032e-01 -1.19332409e-01 -1.60854212e-01  1.14345648e+00  6.89990956e-02
  3.16423980e-01  7.44308252e-01  1.00000000e+00  1.00000000e+00  1.00000000e+00
  1.00000000e+00  1.00000000e+00  1.83470016e-03  1.40373012e-02  6.88426061e-02
  2.32184421e-01  4.67941342e-01  3.62312032e-01 -1.19332409e-01 -1.60854212e-01
  1.14345648e+00  6.89990956e-02  3.16423980e-01  7.44308252e-01  1.00000000e+00
  1.00000000e+00  1.00000000e+00  1.00000000e+00  1.00000000e+00  1.83470016e-03
  1.40373012e-02  6.88426061e-02  2.32184421e-01  4.67941342e-01  3.62312032e-01
 -1.19332409e-01 -1.60854212e-01  1.14345648e+00  6.89990956e-02  3.16423980e-01
  7.44308252e-01  1.00000000e+00  1.00000000e+00  1.00000000e+00  1.00000000e+00
  1.00000000e+00  1.83470016e-03  1.40373012e-02  6.88426061e-02  2.32184421e-01
  4.67941342e-01  3.62312032e-01 -1.19332409e-01 -1.60854212e-01  1.14345648e+00
  6.89990956e-02  3.16423980e-01  7.44308252e-01  1.00000000e+00  1.00000000e+00
  1.00000000e+00  1.00000000e+00  1.00000000e+00  3.34945995e-02  2.34726947e-01
  8.13757318e-01  1.00000000e+00  3.34945995e-02  2.34726947e-01  8.13757318e-01
  1.00000000e+00  1.83470016e-03  1.40373012e-02  6.88426061e-02  2.32184421e-01
  4.67941342e-01  3.62312032e-01 -1.19332409e-01 -1.60854212e-01  1.14345648e+00
  6.89990956e-02  3.16423980e-01  7.44308252e-01  1.00000000e+00  1.00000000e+00
  1.00000000e+00  1.00000000e+00  1.00000000e+00  3.34945995e-02  2.34726947e-01
  8.13757318e-01  1.00000000e+00  1.83470016e-03  1.40373012e-02  6.88426061e-02
  2.32184421e-01  4.67941342e-01  3.62312032e-01 -1.19332409e-01 -1.60854212e-01
  1.14345648e+00  6.89990956e-02  3.16423980e-01  7.44308252e-01  1.00000000e+00
  1.00000000e+00  1.00000000e+00  1.00000000e+00  1.00000000e+00  3.34945995e-02
  2.34726947e-01  8.13757318e-01  1.00000000e+00  3.34945995e-02  2.34726947e-01
  8.13757318e-01  1.00000000e+00  3.34945995e-02  2.34726947e-01  8.13757318e-01
  1.00000000e+00  3.34945995e-02  2.34726947e-01  8.13757318e-01  1.00000000e+00
  1.83109981e-03  1.39500985e-02  6.84450927e-02  2.32714275e-01  4.70192950e-01
  3.58520862e-01 -1.10777504e-01 -1.48026305e-01  1.13076704e+00  7.08742995e-02
  3.39752798e-01  7.27158595e-01  1.00000000e+00  1.00000000e+00  1.00000000e+00
  1.00000000e+00  1.00000000e+00  1.83109981e-03  1.39500985e-02  6.84450927e-02
  2.32714275e-01  4.70192950e-01  3.58520862e-01 -1.10777504e-01 -1.48026305e-01
  1.13076704e+00  7.08742995e-02  3.39752798e-01  7.27158595e-01  1.00000000e+00
  1.00000000e+00  1.00000000e+00  1.00000000e+00  1.00000000e+00  1.83109981e-03
  1.39500985e-02  6.84450927e-02  2.32714275e-01  4.70192950e-01  3.58520862e-01
 -1.10777504e-01 -1.48026305e-01  1.13076704e+00  7.08742995e-02  3.39752798e-01
  7.27158595e-01  1.00000000e+00  1.00000000e+00  1.00000000e+00  1.00000000e+00
  1.00000000e+00  1.83470016e-03  1.40373012e-02  6.88426061e-02  2.32184421e-01
  4.67941342e-01  3.62312032e-01 -1.19332409e-01 -1.60854212e-01  1.14345648e+00
  6.89990956e-02  3.16423980e-01  7.44308252e-01  1.00000000e+00  1.00000000e+00
  1.00000000e+00  1.00000000e+00  1.00000000e+00  3.34945995e-02  2.34726947e-01
  8.13757318e-01  1.00000000e+00  3.34945995e-02  2.34726947e-01  8.13757318e-01
  1.00000000e+00  3.34945995e-02  2.34726947e-01  8.13757318e-01  1.00000000e+00
  3.34945995e-02  2.34726947e-01  8.13757318e-01  1.00000000e+00  3.34945995e-02
  2.34726947e-01  8.13757318e-01  1.00000000e+00  3.34945995e-02  2.34726947e-01
  8.13757318e-01  1.00000000e+00  1.83470016e-03  1.40373012e-02  6.88426061e-02
  2.32184421e-01  4.67941342e-01  3.62312032e-01 -1.19332409e-01 -1.60854212e-01
  1.14345648e+00  6.89990956e-02  3.16423980e-01  7.44308252e-01  1.00000000e+00
  1.00000000e+00  1.00000000e+00  1.00000000e+00  1.00000000e+00  3.34945995e-02
  2.34726947e-01  8.13757318e-01  1.00000000e+00  3.34945995e-02  2.34726947e-01
  8.13757318e-01  1.00000000e+00
Coordinates of each shell                  R   N=         474
 -5.39931742e-01 -1.21128020e-01 -3.46928084e-01 -5.39931742e-01 -1.21128020e-01
 -3.46928084e-01 -5.39931742e-01 -1.21128020e-01 -3.46928084e-01 -5.39931742e-01
 -1.21128020e-01 -3.46928084e-01 -5.39931742e-01 -1.21128020e-01 -3.46928084e-01
 -5.39931742e-01 -1.21128020e-01 -3.46928084e-01 -5.39931742e-01 -1.21128020e-01
 -3.46928084e-01 -5.39931742e-01 -1.21128020e-01 -3.46928084e-01 -3.19893078e+00
  5.32178229e-01  3.52475938e-01 -3.19893078e+00  5.32178229e-01  3.52475938e-01
 -3.19893078e+00  5.32178229e-01  3.52475938e-01 -3.19893078e+00  5.32178229e-01
  3.52475938e-01 -3.19893078e+00  5.32178229e-01  3.52475938e-01 -3.19893078e+00
  5.32178229e-01  3.52475938e-01 -3.19893078e+00  5.32178229e-01  3.52475938e-01
 -3.19893078e+00  5.32178229e-01  3.52475938e-01 -3.92111645e+00  1.71395962e+00
  2.92634589e+00 -3.92111645e+00  1.71395962e+00  2.92634589e+00 -3.92111645e+00
  1.71395962e+00  2.92634589e+00 -3.92111645e+00  1.71395962e+00  2.92634589e+00
 -3.92111645e+00  1.71395962e+00  2.92634589e+00 -3.92111645e+00  1.71395962e+00
  2.92634589e+00 -3.92111645e+00  1.71395962e+00  2.92634589e+00 -3.92111645e+00
  1.71395962e+00  2.92634589e+00 -2.82981058e+00  3.96171195e-01  5.10398751e+00
 -2.82981058e+00  3.96171195e-01  5.10398751e+00 -2.82981058e+00  3.96171195e-01
  5.10398751e+00 -2.82981058e+00  3.96171195e-01  5.10398751e+00 -2.82981058e+00
  3.96171195e-01  5.10398751e+00 -2.82981058e+00  3.96171195e-01  5.10398751e+00
 -2.82981058e+00  3.96171195e-01  5.10398751e+00 -2.82981058e+00  3.96171195e-01
  5.10398751e+00  1.50384260e+00  5.41900191e-02  1.34199565e+00  1.50384260e+00
  5.41900191e-02  1.34199565e+00  1.50384260e+00  5.41900191e-02  1.34199565e+00
  1.50384260e+00  5.41900191e-02  1.34199565e+00  1.50384260e+00  5.41900191e-02
  1.34199565e+00  1.50384260e+00  5.41900191e-02  1.34199565e+00  1.50384260e+00
  5.41900191e-02  1.34199565e+00  1.50384260e+00  5.41900191e-02  1.34199565e+00
  3.98322237e+00 -5.39129284e-01  5.97359554e-01  3.98322237e+00 -5.39129284e-01
  5.97359554e-01  3.98322237e+00 -5.39129284e-01  5.97359554e-01  3.98322237e+00
 -5.39129284e-01  5.97359554e-01  3.98322237e+00 -5.39129284e-01  5.97359554e-01
  3.98322237e+00 -5.39129284e-01  5.97359554e-01  3.98322237e+00 -5.39129284e-01
  5.97359554e-01  3.98322237e+00 -5.39129284e-01  5.97359554e-01  4.32369143e+00
 -1.31103216e+00 -1.87470834e+00  4.32369143e+00 -1.31103216e+00 -1.87470834e+00
  4.32369143e+00 -1.31103216e+00 -1.87470834e+00  4.32369143e+00 -1.31103216e+00
 -1.87470834e+00  4.32369143e+00 -1.31103216e+00 -1.87470834e+00  4.32369143e+00
 -1.31103216e+00 -1.87470834e+00  4.32369143e+00 -1.31103216e+00 -1.87470834e+00
  4.32369143e+00 -1.31103216e+00 -1.87470834e+00  2.30395272e+00 -1.49375591e+00
 -3.56671614e+00  2.30395272e+00 -1.49375591e+00 -3.56671614e+00  2.30395272e+00
 -1.49375591e+00 -3.56671614e+00  2.30395272e+00 -1.49375591e+00 -3.56671614e+00
  2.30395272e+00 -1.49375591e+00 -3.56671614e+00  2.30395272e+00 -1.49375591e+00
 -3.56671614e+00  2.30395272e+00 -1.49375591e+00 -3.56671614e+00  2.30395272e+00
 -1.49375591e+00 -3.56671614e+00 -1.31326410e-01 -9.17580395e-01 -2.87764760e+00
 -1.31326410e-01 -9.17580395e-01 -2.87764760e+00 -1.31326410e-01 -9.17580395e-01
 -2.87764760e+00 -1.31326410e-01 -9.17580395e-01 -2.87764760e+00 -1.31326410e-01
 -9.17580395e-01 -2.87764760e+00 -1.31326410e-01 -9.17580395e-01 -2.87764760e+00
 -1.31326410e-01 -9.17580395e-01 -2.87764760e+00 -1.31326410e-01 -9.17580395e-01
 -2.87764760e+00  1.13597634e+00  5.95319731e-01  3.28156851e+00  1.13597634e+00
  5.95319731e-01  3.28156851e+00  5.55912225e+00 -4.06438008e-01  1.90264660e+00
  5.55912225e+00 -4.06438008e-01  1.90264660e+00 -3.20180710e+00  4.54571598e+00
  2.92570545e+00 -3.20180710e+00  4.54571598e+00  2.92570545e+00 -3.20180710e+00
  4.54571598e+00  2.92570545e+00 -3.20180710e+00  4.54571598e+00  2.92570545e+00
 -3.20180710e+00  4.54571598e+00  2.92570545e+00 -3.20180710e+00  4.54571598e+00
  2.92570545e+00 -3.20180710e+00  4.54571598e+00  2.92570545e+00 -3.20180710e+00
  4.54571598e+00  2.92570545e+00 -6.00607212e+00  1.59326747e+00  2.93481813e+00
 -6.00607212e+00  1.59326747e+00  2.93481813e+00 -3.81142813e+00 -2.16640634e+00
  5.46303064e+00 -3.81142813e+00 -2.16640634e+00  5.46303064e+00 -3.81142813e+00
 -2.16640634e+00  5.46303064e+00 -3.81142813e+00 -2.16640634e+00  5.46303064e+00
 -3.81142813e+00 -2.16640634e+00  5.46303064e+00 -3.81142813e+00 -2.16640634e+00
  5.46303064e+00 -3.81142813e+00 -2.16640634e+00  5.46303064e+00 -3.81142813e+00
 -2.16640634e+00  5.46303064e+00 -3.18137412e+00  1.42862644e+00  6.68678204e+00
 -3.18137412e+00  1.42862644e+00  6.68678204e+00 -3.17032668e+00 -3.38566069e+00
  3.91715574e+00 -3.17032668e+00 -3.38566069e+00  3.91715574e+00 -5.89605597e+00
 -2.25784209e+00  5.52573368e+00 -5.89605597e+00 -2.25784209e+00  5.52573368e+00
 -3.05954901e+00 -2.94034115e+00  7.22826740e+00 -3.05954901e+00 -2.94034115e+00
  7.22826740e+00 -4.90356092e+00  2.66516830e-01 -1.19958500e+00 -4.90356092e+00
  2.66516830e-01 -1.19958500e+00 -4.90356092e+00  2.66516830e-01 -1.19958500e+00
 -4.90356092e+00  2.66516830e-01 -1.19958500e+00 -4.90356092e+00  2.66516830e-01
 -1.19958500e+00 -4.90356092e+00  2.66516830e-01 -1.19958500e+00 -4.90356092e+00
  2.66516830e-01 -1.19958500e+00 -4.90356092e+00  2.66516830e-01 -1.19958500e+00
  6.52895642e+00 -1.93823088e+00 -3.07769425e+00  6.52895642e+00 -1.93823088e+00
 -3.07769425e+00  6.52895642e+00 -1.93823088e+00 -3.07769425e+00  6.52895642e+00
 -1.93823088e+00 -3.07769425e+00  6.52895642e+00 -1.93823088e+00 -3.07769425e+00
  6.52895642e+00 -1.93823088e+00 -3.07769425e+00  6.52895642e+00 -1.93823088e+00
 -3.07769425e+00  6.52895642e+00 -1.93823088e+00 -3.07769425e+00  3.20514700e+00
 -2.22452794e+00 -5.90196132e+00  3.20514700e+00 -2.22452794e+00 -5.90196132e+00
  3.20514700e+00 -2.22452794e+00 -5.90196132e+00  3.20514700e+00 -2.22452794e+00
 -5.90196132e+00  3.20514700e+00 -2.22452794e+00 -5.90196132e+00  3.20514700e+00
 -2.22452794e+00 -5.90196132e+00  3.20514700e+00 -2.22452794e+00 -5.90196132e+00
  3.20514700e+00 -2.22452794e+00 -5.90196132e+00 -4.34501268e+00  6.04570208e+00
  5.13047968e+00 -4.34501268e+00  6.04570208e+00  5.13047968e+00 -4.34501268e+00
  6.04570208e+00  5.13047968e+00 -4.34501268e+00  6.04570208e+00  5.13047968e+00
 -4.34501268e+00  6.04570208e+00  5.13047968e+00 -4.34501268e+00  6.04570208e+00
  5.13047968e+00 -4.34501268e+00  6.04570208e+00  5.13047968e+00 -4.34501268e+00
  6.04570208e+00  5.13047968e+00 -3.87443683e+00  5.36273291e+00  1.14318797e+00
 -3.87443683e+00  5.36273291e+00  1.14318797e+00 -1.13794170e+00  4.73547044e+00
  2.93535794e+00 -1.13794170e+00  4.73547044e+00  2.93535794e+00 -6.40752754e+00
  5.83998468e+00  5.18729230e+00 -6.40752754e+00  5.83998468e+00  5.18729230e+00
 -3.91861915e+00  8.06254410e+00  4.92696613e+00 -3.91861915e+00  8.06254410e+00
  4.92696613e+00 -3.59067763e+00  5.45719817e+00  6.97000601e+00 -3.59067763e+00
  5.45719817e+00  6.97000601e+00 -1.70554711e+00 -1.03698695e+00 -4.18290603e+00
 -1.70554711e+00 -1.03698695e+00 -4.18290603e+00  5.77670024e+00 -2.94651747e+00
 -5.48815427e+00  5.77670024e+00 -2.94651747e+00 -5.48815427e+00  5.77670024e+00
 -2.94651747e+00 -5.48815427e+00  5.77670024e+00 -2.94651747e+00 -5.48815427e+00
  5.77670024e+00 -2.94651747e+00 -5.48815427e+00  5.77670024e+00 -2.94651747e+00
 -5.48815427e+00  5.77670024e+00 -2.94651747e+00 -5.48815427e+00  5.77670024e+00
 -2.94651747e+00 -5.48815427e+00  5.92036644e+00 -5.01676961e+00 -5.42848757e+00
  5.92036644e+00 -5.01676961e+00 -5.42848757e+00  6.96733141e+00 -2.13738709e+00
 -6.96487835e+00  6.96733141e+00 -2.13738709e+00 -6.96487835e+00
Total Energy                               R     -7.467273920346164e+02
Alpha Orbital Energies                     R   N=         334
 -1.92148083e+01 -1.92089061e+01 -1.91418986e+01 -1.43369567e+01 -1.03192615e+01
 -1.02773412e+01 -1.02696719e+01 -1.02626353e+01 -1.02262821e+01 -1.02114714e+01
 -1.02098492e+01 -1.02085715e+01 -1.02062988e+01 -1.02046963e+01 -1.01983422e+01
 -1.01911062e+01 -1.14300507e+00 -1.05156213e+00 -1.03987342e+00 -9.18192635e-01
 -8.73766357e-01 -7.91413293e-01 -7.79181418e-01 -7.67523676e-01 -7.16936927e-01
 -6.92798265e-01 -6.63488433e-01 -6.42952251e-01 -6.34956743e-01 -6.08177934e-01
 -5.67918147e-01 -5.37353339e-01 -5.31011842e-01 -5.24761365e-01 -5.00967357e-01
 -4.93789238e-01 -4.76039992e-01 -4.56074410e-01 -4.52760876e-01 -4.45382488e-01
 -4.37314627e-01 -4.23877150e-01 -4.14546342e-01 -4.13449885e-01 -4.04853851e-01