Generated by Psi4
     FORCE                           RHF                       TESTBAS
Number of atoms                            I               31
Charge                                     I                0
Multiplicity                               I                1
Number of electrons                        I              118
Number of alpha electrons                  I               59
Number of beta electrons                   I               59
Number of basis functions                  I              334
Number of independent functions            I              334
Atomic numbers                             I   N=          31
           6           6           6           7           6           6
           6           6           6           1           1           6
           1           6           1           8           8           8
           1           1           1           6           1           1
           1           1           1           1           6           1
           1
Nuclear charges                            R   N=          31
  6.00000000e+00  6.00000000e+00  6.00000000e+00  7.00000000e+00  6.00000000e+00
  6.00000000e+00  6.00000000e+00  6.00000000e+00  6.00000000e+00  1.00000000e+00
  1.00000000e+00  6.00000000e+00  1.00000000e+00  6.00000000e+00  1.00000000e+00
  8.00000000e+00  8.00000000e+00  8.00000000e+00  1.00000000e+00  1.00000000e+00
  1.00000000e+00  6.00000000e+00  1.00000000e+00  1.00000000e+00  1.00000000e+00
  1.00000000e+00  1.00000000e+00  1.00000000e+00  6.00000000e+00  1.00000000e+00
  1.00000000e+00
Current cartesian coordinates              R   N=          93
 -6.05913126e-01  3.44895890e-01 -3.45470005e-01 -3.32753224e+00  6.17998760e-01
  3.68430685e-01 -4.19638696e+00  1.92139797e+00  2.83883821e+00 -2.98105333e+00
  1.00081920e+00  5.15691580e+00  1.40361051e+00  8.77914798e-01  1.30793355e+00
  3.93725605e+00  6.37470987e-01  5.48611064e-01  4.36727478e+00 -1.55986715e-01
 -1.90282193e+00  2.38259101e+00 -6.95696537e-01 -3.55877486e+00 -1.05610704e-01
 -4.67400206e-01 -2.85376126e+00  9.78084287e-01  1.41162079e+00  3.23692327e+00
  5.48720678e+00  1.04370060e+00  1.82828508e+00 -3.81314639e+00  4.79314642e+00
  2.57787204e+00 -6.24762120e+00  1.55179550e+00  2.87991796e+00 -4.09584464e+00
 -1.29432160e+00  6.26452565e+00 -3.04510866e+00  2.40637481e+00  6.46848388e+00
 -4.98614344e+00 -5.07959522e-02 -1.11055070e+00  6.63085601e+00 -4.83407975e-01
 -3.11754270e+00  3.36142872e+00 -1.35849083e+00 -5.88328564e+00 -1.80539613e+00
  5.29453200e+00  2.57209242e+00 -4.73279680e+00  5.77566506e+00  4.15626699e+00
 -4.66300110e+00  5.48501998e+00  8.23151565e-01 -3.36573913e+00 -3.71952217e+00
  4.87126866e+00 -6.18033169e+00 -1.15535277e+00  6.35530281e+00 -3.40929395e+00
 -1.40443892e+00  8.21697711e+00 -4.11730097e+00 -3.76298144e+00  2.94375584e+00
 -4.13602113e+00 -5.36340357e+00  5.87175250e+00 -1.30761193e+00 -3.91850140e+00
  4.77099910e+00 -1.65541658e+00 -8.67230259e-01 -4.13221882e+00  6.01512078e+00
 -1.67664220e+00 -5.48175774e+00  7.05949913e+00 -7.53372299e-01 -7.00158256e+00
  6.46481220e+00 -3.69954053e+00 -5.35406854e+00
Integer atomic weights                     I   N=          31
          12          12          12          14          12          12
          12          12          12           1           1          12
           1          12           1          15          15          15
           1           1           1          12           1           1
           1           1           1           1          12           1
           1
Real atomic weights                        R   N=          31
  1.20000000e+01  1.20000000e+01  1.20000000e+01  1.40030740e+01  1.20000000e+01
  1.20000000e+01  1.20000000e+01  1.20000000e+01  1.20000000e+01  1.00782503e+00
  1.00782503e+00  1.20000000e+01  1.00782503e+00  1.20000000e+01  1.00782503e+00
  1.59949146e+01  1.59949146e+01  1.59949146e+01  1.00782503e+00  1.00782503e+00
  1.00782503e+00  1.20000000e+01  1.00782503e+00  1.00782503e+00  1.00782503e+00
  1.00782503e+00  1.00782503e+00  1.00782503e+00  1.20000000e+01  1.00782503e+00
  1.00782503e+00
Number of primitive shells                 I              332
Number of contracted shells                I              158
Pure/Cartesian d shells                    I                1
Pure/Cartesian f shells                    I                1
Highest angular momentum                   I                2
Largest degree of contraction              I                6
Shell types                                I   N=         158
           0           0           1           0           1           2
           0           1           0           0           1           0
           1           2           0           1           0           0
           1           0           1           2           0           1
           0           0           1           0           1           2
           0           1           0           0           1           0
           1           2           0           1           0           0
           1           0           1           2           0           1
           0           0           1           0           1           2
           0           1           0           0           1           0
           1           2           0           1           0           0
           1           0           1           2           0           1
           0           0           0           0           0           0
           1           0           1           2           0           1
           0           0           0           0           1           0
           1           2           0           1           0           0
           0           0           1           0           1           2
           0           1           0           0           1           0
           1           2           0           1           0           0
           1           0           1           2           0           1
           0           0           0           0           0           0
           0           0           1           0           1           2
           0           1           0           0           0           0
           0           0           0           0           0           0
           0           0           0           0           1           0
           1           2           0           1           0           0
           0           0
Number of primitives per shell             I   N=         158
           6           3           3           1           1           1
           1           1           6           3           3           1
           1           1           1           1           6           3
           3           1           1           1           1           1
           6           3           3           1           1           1
           1           1           6           3           3           1
           1           1           1           1           6           3
           3           1           1           1           1           1
           6           3           3           1           1           1
           1           1           6           3           3           1
           1           1           1           1           6           3
           3           1           1           1           1           1
           3           1           3           1           6           3
           3           1           1           1           1           1
           3           1           6           3           3           1
           1           1           1           1           3           1
           6           3           3           1           1           1
           1           1           6           3           3           1
           1           1           1           1           6           3
           3           1           1           1           1           1
           3           1           3           1           3           1
           6           3           3           1           1           1
           1           1           3           1           3           1
           3           1           3           1           3           1
           3           1           6           3           3           1
           1           1           1           1           3           1
           3           1
Shell to atom map                          I   N=         158
           1           1           1           1           1           1
           1           1           2           2           2           2
           2           2           2           2           3           3
           3           3           3           3           3           3
           4           4           4           4           4           4
           4           4           5           5           5           5
           5           5           5           5           6           6
           6           6           6           6           6           6
           7           7           7           7           7           7
           7           7           8           8           8           8
           8           8           8           8           9           9
           9           9           9           9           9           9
          10          10          11          11          12          12
          12          12          12          12          12          12
          13          13          14          14          14          14
          14          14          14          14          15          15
          16          16          16          16          16          16
          16          16          17          17          17          17
          17          17          17          17          18          18
          18          18          18          18          18          18
          19          19          20          20          21          21
          22          22          22          22          22          22
          22          22          23          23          24          24
          25          25          26          26          27          27
          28          28          29          29          29          29
          29          29          29          29          30          30
          31          31
Primitive exponents                        R   N=         332
  3.04752490e+03  4.57369510e+02  1.03948690e+02  2.92101550e+01  9.28666300e+00
  3.16392700e+00  7.86827240e+00  1.88128850e+00  5.44249300e-01  7.86827240e+00
  1.88128850e+00  5.44249300e-01  1.68714400e-01  1.68714400e-01  8.00000000e-01
  4.38000000e-02  4.38000000e-02  3.04752490e+03  4.57369510e+02  1.03948690e+02
  2.92101550e+01  9.28666300e+00  3.16392700e+00  7.86827240e+00  1.88128850e+00
  5.44249300e-01  7.86827240e+00  1.88128850e+00  5.44249300e-01  1.68714400e-01
  1.68714400e-01  8.00000000e-01  4.38000000e-02  4.38000000e-02  3.04752490e+03
  4.57369510e+02  1.03948690e+02  2.92101550e+01  9.28666300e+00  3.16392700e+00
  7.86827240e+00  1.88128850e+00  5.44249300e-01  7.86827240e+00  1.88128850e+00
  5.44249300e-01  1.68714400e-01  1.68714400e-01  8.00000000e-01  4.38000000e-02
  4.38000000e-02  4.17351100e+03  6.27457900e+02  1.42902100e+02  4.02343300e+01
  1.28202100e+01  4.39043700e+00  1.16263580e+01  2.71628000e+00  7.72218000e-01
  1.16263580e+01  2.71628000e+00  7.72218000e-01  2.12031300e-01  2.12031300e-01
  8.00000000e-01  6.39000000e-02  6.39000000e-02  3.04752490e+03  4.57369510e+02
  1.03948690e+02  2.92101550e+01  9.28666300e+00  3.16392700e+00  7.86827240e+00
  1.88128850e+00  5.44249300e-01  7.86827240e+00  1.88128850e+00  5.44249300e-01
  1.68714400e-01  1.68714400e-01  8.00000000e-01  4.38000000e-02  4.38000000e-02
  3.04752490e+03  4.57369510e+02  1.03948690e+02  2.92101550e+01  9.28666300e+00
  3.16392700e+00  7.86827240e+00  1.88128850e+00  5.44249300e-01  7.86827240e+00
  1.88128850e+00  5.44249300e-01  1.68714400e-01  1.68714400e-01  8.00000000e-01
  4.38000000e-02  4.38000000e-02  3.04752490e+03  4.57369510e+02  1.03948690e+02
  2.92101550e+01  9.28666300e+00  3.16392700e+00  7.86827240e+00  1.88128850e+00
  5.44249300e-01  7.86827240e+00  1.88128850e+00  5.44249300e-01  1.68714400e-01
  1.68714400e-01  8.00000000e-01  4.38000000e-02  4.38000000e-02  3.04752490e+03
  4.57369510e+02  1.03948690e+02  2.92101550e+01  9.28666300e+00  3.16392700e+00
  7.86827240e+00  1.88128850e+00  5.44249300e-01  7.86827240e+00  1.88128850e+00
  5.44249300e-01  1.68714400e-01  1.68714400e-01  8.00000000e-01  4.38000000e-02
  4.38000000e-02  3.04752490e+03  4.57369510e+02  1.03948690e+02  2.92101550e+01
  9.28666300e+00  3.16392700e+00  7.86827240e+00  1.88128850e+00  5.44249300e-01
  7.86827240e+00  1.88128850e+00  5.44249300e-01  1.68714400e-01  1.68714400e-01
  8.00000000e-01  4.38000000e-02  4.38000000e-02  1.87311370e+01  2.82539370e+00
  6.40121700e-01  1.61277800e-01  1.87311370e+01  2.82539370e+00  6.40121700e-01
  1.61277800e-01  3.04752490e+03  4.57369510e+02  1.03948690e+02  2.92101550e+01
  9.28666300e+00  3.16392700e+00  7.86827240e+00  1.88128850e+00  5.44249300e-01
  7.86827240e+00  1.88128850e+00  5.44249300e-01  1.68714400e-01  1.68714400e-01
  8.00000000e-01  4.38000000e-02  4.38000000e-02  1.87311370e+01  2.82539370e+00
  6.40121700e-01  1.61277800e-01  3.04752490e+03  4.57369510e+02  1.03948690e+02
  2.92101550e+01  9.28666300e+00  3.16392700e+00  7.86827240e+00  1.88128850e+00
  5.44249300e-01  7.86827240e+00  1.88128850e+00  5.44249300e-01  1.68714400e-01
  1.68714400e-01  8.00000000e-01  4.38000000e-02  4.38000000e-02  1.87311370e+01
  2.82539370e+00  6.40121700e-01  1.61277800e-01  5.48467170e+03  8.25234950e+02
  1.88046960e+02  5.29645000e+01  1.68975700e+01  5.79963530e+00  1.55396160e+01
  3.59993360e+00  1.01376180e+00  1.55396160e+01  3.59993360e+00  1.01376180e+00
  2.70005800e-01  2.70005800e-01  8.00000000e-01  8.45000000e-02  8.45000000e-02
  5.48467170e+03  8.25234950e+02  1.88046960e+02  5.29645000e+01  1.68975700e+01
  5.79963530e+00  1.55396160e+01  3.59993360e+00  1.01376180e+00  1.55396160e+01
  3.59993360e+00  1.01376180e+00  2.70005800e-01  2.70005800e-01  8.00000000e-01
  8.45000000e-02  8.45000000e-02  5.48467170e+03  8.25234950e+02  1.88046960e+02
  5.29645000e+01  1.68975700e+01  5.79963530e+00  1.55396160e+01  3.59993360e+00
  1.01376180e+00  1.55396160e+01  3.59993360e+00  1.01376180e+00  2.70005800e-01
  2.70005800e-01  8.00000000e-01  8.45000000e-02  8.45000000e-02  1.87311370e+01
  2.82539370e+00  6.40121700e-01  1.61277800e-01  1.87311370e+01  2.82539370e+00
  6.40121700e-01  1.61277800e-01  1.87311370e+01  2.82539370e+00  6.40121700e-01
  1.61277800e-01  3.04752490e+03  4.57369510e+02  1.03948690e+02  2.92101550e+01
  9.28666300e+00  3.16392700e+00  7.86827240e+00  1.88128850e+00  5.44249300e-01
  7.86827240e+00  1.88128850e+00  5.44249300e-01  1.68714400e-01  1.68714400e-01
  8.00000000e-01  4.38000000e-02  4.38000000e-02  1.87311370e+01  2.82539370e+00
  6.40121700e-01  1.61277800e-01  1.87311370e+01  2.82539370e+00  6.40121700e-01
  1.61277800e-01  1.87311370e+01  2.82539370e+00  6.40121700e-01  1.61277800e-01
  1.87311370e+01  2.82539370e+00  6.40121700e-01  1.61277800e-01  1.87311370e+01
  2.82539370e+00  6.40121700e-01  1.61277800e-01  1.87311370e+01  2.82539370e+00
  6.40121700e-01  1.61277800e-01  3.04752490e+03  4.57369510e+02  1.03948690e+02
  2.92101550e+01  9.28666300e+00  3.16392700e+00  7.86827240e+00  1.88128850e+00
  5.44249300e-01  7.86827240e+00  1.88128850e+00  5.44249300e-01  1.68714400e-01
  1.68714400e-01  8.00000000e-01  4.38000000e-02  4.38000000e-02  1.87311370e+01
  2.82539370e+00  6.40121700e-01  1.61277800e-01  1.87311370e+01  2.82539370e+00
  6.40121700e-01  1.61277800e-01
Contraction coefficients                   R   N=         332
  1.83470016e-03  1.40373012e-02  6.88426061e-02  2.32184421e-01  4.67941342e-01
  3.62312032e-01 -1.19332409e-01 -1.60854212e-01  1.14345648e+00  6.89990956e-02
  3.16423980e-01  7.44308252e-01  1.00000000e+00  1.00000000e+00  1.00000000e+00
  1.00000000e+00  1.00000000e+00  1.83470016e-03  1.40373012e-02  6.88426061e-02
  2.32184421e-01  4.67941342e-01  3.62312032e-01 -1.19332409e-01 -1.60854212e-01
  1.14345648e+00  6.89990956e-02  3.16423980e-01  7.44308252e-01  1.00000000e+00
  1.00000000e+00  1.00000000e+00  1.00000000e+00  1.00000000e+00  1.83470016e-03
  1.40373012e-02  6.88426061e-02  2.32184421e-01  4.67941342e-01  3.62312032e-01
 -1.19332409e-01 -1.60854212e-01  1.14345648e+00  6.89990956e-02  3.16423980e-01
  7.44308252e-01  1.00000000e+00  1.00000000e+00  1.00000000e+00  1.00000000e+00
  1.00000000e+00  1.83479944e-03  1.39949958e-02  6.85869792e-02  2.32240930e-01
  4.69069858e-01  3.60454891e-01 -1.14961023e-01 -1.69118034e-01  1.14585223e+00
  6.75800232e-02  3.23907111e-01  7.40895255e-01  1.00000000e+00  1.00000000e+00
  1.00000000e+00  1.00000000e+00  1.00000000e+00  1.83470016e-03  1.40373012e-02
  6.88426061e-02  2.32184421e-01  4.67941342e-01  3.62312032e-01 -1.19332409e-01
 -1.60854212e-01  1.14345648e+00  6.89990956e-02  3.16423980e-01  7.44308252e-01
  1.00000000e+00  1.00000000e+00  1.00000000e+00  1.00000000e+00  1.00000000e+00
  1.83470016e-03  1.40373012e-02  6.88426061e-02  2.32184421e-01  4.67941342e-01
  3.62312032e-01 -1.19332409e-01 -1.60854212e-01  1.14345648e+00  6.89990956e-02
  3.16423980e-01  7.44308252e-01  1.00000000e+00  1.00000000e+00  1.00000000e+00
  1.00000000e+00  1.00000000e+00  1.83470016e-03  1.40373012e-02  6.88426061e-02
  2.32184421e-01  4.67941342e-01  3.62312032e-01 -1.19332409e-01 -1.60854212e-01
  1.14345648e+00  6.89990956e-02  3.16423980e-01  7.44308252e-01  1.00000000e+00
  1.00000000e+00  1.00000000e+00  1.00000000e+00  1.00000000e+00  1.83470016e-03
  1.40373012e-02  6.88426061e-02  2.32184421e-01  4.67941342e-01  3.62312032e-01
 -1.19332409e-01 -1.60854212e-01  1.14345648e+00  6.89990956e-02  3.16423980e-01
  7.44308252e-01  1.00000000e+00  1.00000000e+00  1.00000000e+00  1.00000000e+00
  1.00000000e+00  1.83470016e-03  1.40373012e-02  6.88426061e-02  2.32184421e-01
  4.67941342e-01  3.62312032e-01 -1.19332409e-01 -1.60854212e-01  1.14345648e+00
  6.89990956e-02  3.16423980e-01  7.44308252e-01  1.00000000e+00  1.00000000e+00
  1.00000000e+00  1.00000000e+00  1.00000000e+00  3.34945995e-02  2.34726947e-01
  8.13757318e-01  1.00000000e+00  3.34945995e-02  2.34726947e-01  8.13757318e-01
  1.00000000e+00  1.83470016e-03  1.40373012e-02  6.88426061e-02  2.32184421e-01
  4.67941342e-01  3.62312032e-01 -1.19332409e-01 -1.60854212e-01  1.14345648e+00
  6.89990956e-02  3.16423980e-01  7.44308252e-01  1.00000000e+00  1.00000000e+00
  1.00000000e+00  1.00000000e+00  1.00000000e+00  3.34945995e-02  2.34726947e-01
  8.13757318e-01  1.00000000e+00  1.83470016e-03  1.40373012e-02  6.88426061e-02
  2.32184421e-01  4.67941342e-01  3.62312032e-01 -1.19332409e-01 -1.60854212e-01
  1.14345648e+00  6.89990956e-02  3.16423980e-01  7.44308252e-01  1.00000000e+00
  1.00000000e+00  1.00000000e+00  1.00000000e+00  1.00000000e+00  3.34945995e-02
  2.34726947e-01  8.13757318e-01  1.00000000e+00  1.83109981e-03  1.39500985e-02
  6.84450927e-02  2.32714275e-01  4.70192950e-01  3.58520862e-01 -1.10777504e-01
 -1.48026305e-01  1.13076704e+00  7.08742995e-02  3.39752798e-01  7.27158595e-01
  1.00000000e+00  1.00000000e+00  1.00000000e+00  1.00000000e+00  1.00000000e+00
  1.83109981e-03  1.39500985e-02  6.84450927e-02  2.32714275e-01  4.70192950e-01
  3.58520862e-01 -1.10777504e-01 -1.48026305e-01  1.13076704e+00  7.08742995e-02
  3.39752798e-01  7.27158595e-01  1.00000000e+00  1.00000000e+00  1.00000000e+00
  1.00000000e+00  1.00000000e+00  1.83109981e-03  1.39500985e-02  6.84450927e-02
  2.32714275e-01  4.70192950e-01  3.58520862e-01 -1.10777504e-01 -1.48026305e-01
  1.13076704e+00  7.08742995e-02  3.39752798e-01  7.27158595e-01  1.00000000e+00
  1.00000000e+00  1.00000000e+00  1.00000000e+00  1.00000000e+00  3.34945995e-02
  2.34726947e-01  8.13757318e-01  1.00000000e+00  3.34945995e-02  2.34726947e-01
  8.13757318e-01  1.00000000e+00  3.34945995e-02  2.34726947e-01  8.13757318e-01
  1.00000000e+00  1.83470016e-03  1.40373012e-02  6.88426061e-02  2.32184421e-01
  4.67941342e-01  3.62312032e-01 -1.19332409e-01 -1.60854212e-01  1.14345648e+00
  6.89990956e-02  3.16423980e-01  7.44308252e-01  1.00000000e+00  1.00000000e+00
  1.00000000e+00  1.00000000e+00  1.00000000e+00  3.34945995e-02  2.34726947e-01
  8.13757318e-01  1.00000000e+00  3.34945995e-02  2.34726947e-01  8.13757318e-01
  1.00000000e+00  3.34945995e-02  2.34726947e-01  8.13757318e-01  1.00000000e+00
  3.34945995e-02  2.34726947e-01  8.13757318e-01  1.00000000e+00  3.34945995e-02
  2.34726947e-01  8.13757318e-01  1.00000000e+00  3.34945995e-02  2.34726947e-01
  8.13757318e-01  1.00000000e+00  1.83470016e-03  1.40373012e-02  6.88426061e-02
  2.32184421e-01  4.67941342e-01  3.62312032e-01 -1.19332409e-01 -1.60854212e-01
  1.14345648e+00  6.89990956e-02  3.16423980e-01  7.44308252e-01  1.00000000e+00
  1.00000000e+00  1.00000000e+00  1.00000000e+00  1.00000000e+00  3.34945995e-02
  2.34726947e-01  8.13757318e-01  1.00000000e+00  3.34945995e-02  2.34726947e-01
  8.13757318e-01  1.00000000e+00
Coordinates of each shell                  R   N=         474
 -6.05913126e-01  3.44895890e-01 -3.45470005e-01 -6.05913126e-01  3.44895890e-01
 -3.45470005e-01 -6.05913126e-01  3.44895890e-01 -3.45470005e-01 -6.05913126e-01
  3.44895890e-01 -3.45470005e-01 -6.05913126e-01  3.44895890e-01 -3.45470005e-01
 -6.05913126e-01  3.44895890e-01 -3.45470005e-01 -6.05913126e-01  3.44895890e-01
 -3.45470005e-01 -6.05913126e-01  3.44895890e-01 -3.45470005e-01 -3.32753224e+00
  6.17998760e-01  3.68430685e-01 -3.32753224e+00  6.17998760e-01  3.68430685e-01
 -3.32753224e+00  6.17998760e-01  3.68430685e-01 -3.32753224e+00  6.17998760e-01
  3.68430685e-01 -3.32753224e+00  6.17998760e-01  3.68430685e-01 -3.32753224e+00
  6.17998760e-01  3.68430685e-01 -3.32753224e+00  6.17998760e-01  3.68430685e-01
 -3.32753224e+00  6.17998760e-01  3.68430685e-01 -4.19638696e+00  1.92139797e+00
  2.83883821e+00 -4.19638696e+00  1.92139797e+00  2.83883821e+00 -4.19638696e+00
  1.92139797e+00  2.83883821e+00 -4.19638696e+00  1.92139797e+00  2.83883821e+00
 -4.19638696e+00  1.92139797e+00  2.83883821e+00 -4.19638696e+00  1.92139797e+00
  2.83883821e+00 -4.19638696e+00  1.92139797e+00  2.83883821e+00 -4.19638696e+00
  1.92139797e+00  2.83883821e+00 -2.98105333e+00  1.00081920e+00  5.15691580e+00
 -2.98105333e+00  1.00081920e+00  5.15691580e+00 -2.98105333e+00  1.00081920e+00
  5.15691580e+00 -2.98105333e+00  1.00081920e+00  5.15691580e+00 -2.98105333e+00
  1.00081920e+00  5.15691580e+00 -2.98105333e+00  1.00081920e+00  5.15691580e+00
 -2.98105333e+00  1.00081920e+00  5.15691580e+00 -2.98105333e+00  1.00081920e+00
  5.15691580e+00  1.40361051e+00  8.77914798e-01  1.30793355e+00  1.40361051e+00
  8.77914798e-01  1.30793355e+00  1.40361051e+00  8.77914798e-01  1.30793355e+00
  1.40361051e+00  8.77914798e-01  1.30793355e+00  1.40361051e+00  8.77914798e-01
  1.30793355e+00  1.40361051e+00  8.77914798e-01  1.30793355e+00  1.40361051e+00
  8.77914798e-01  1.30793355e+00  1.40361051e+00  8.77914798e-01  1.30793355e+00
  3.93725605e+00  6.37470987e-01  5.48611064e-01  3.93725605e+00  6.37470987e-01
  5.48611064e-01  3.93725605e+00  6.37470987e-01  5.48611064e-01  3.93725605e+00
  6.37470987e-01  5.48611064e-01  3.93725605e+00  6.37470987e-01  5.48611064e-01
  3.93725605e+00  6.37470987e-01  5.48611064e-01  3.93725605e+00  6.37470987e-01
  5.48611064e-01  3.93725605e+00  6.37470987e-01  5.48611064e-01  4.36727478e+00
 -1.55986715e-01 -1.90282193e+00  4.36727478e+00 -1.55986715e-01 -1.90282193e+00
  4.36727478e+00 -1.55986715e-01 -1.90282193e+00  4.36727478e+00 -1.55986715e-01
 -1.90282193e+00  4.36727478e+00 -1.55986715e-01 -1.90282193e+00  4.36727478e+00
 -1.55986715e-01 -1.90282193e+00  4.36727478e+00 -1.55986715e-01 -1.90282193e+00
  4.36727478e+00 -1.55986715e-01 -1.90282193e+00  2.38259101e+00 -6.95696537e-01
 -3.55877486e+00  2.38259101e+00 -6.95696537e-01 -3.55877486e+00  2.38259101e+00
 -6.95696537e-01 -3.55877486e+00  2.38259101e+00 -6.95696537e-01 -3.55877486e+00
  2.38259101e+00 -6.95696537e-01 -3.55877486e+00  2.38259101e+00 -6.95696537e-01
 -3.55877486e+00  2.38259101e+00 -6.95696537e-01 -3.55877486e+00  2.38259101e+00
 -6.95696537e-01 -3.55877486e+00 -1.05610704e-01 -4.67400206e-01 -2.85376126e+00
 -1.05610704e-01 -4.67400206e-01 -2.85376126e+00 -1.05610704e-01 -4.67400206e-01
 -2.85376126e+00 -1.05610704e-01 -4.67400206e-01 -2.85376126e+00 -1.05610704e-01
 -4.67400206e-01 -2.85376126e+00 -1.05610704e-01 -4.67400206e-01 -2.85376126e+00
 -1.05610704e-01 -4.67400206e-01 -2.85376126e+00 -1.05610704e-01 -4.67400206e-01
 -2.85376126e+00  9.78084287e-01  1.41162079e+00  3.23692327e+00  9.78084287e-01
  1.41162079e+00  3.23692327e+00  5.48720678e+00  1.04370060e+00  1.82828508e+00
  5.48720678e+00  1.04370060e+00  1.82828508e+00 -3.81314639e+00  4.79314642e+00
  2.57787204e+00 -3.81314639e+00  4.79314642e+00  2.57787204e+00 -3.81314639e+00
  4.79314642e+00  2.57787204e+00 -3.81314639e+00  4.79314642e+00  2.57787204e+00
 -3.81314639e+00  4.79314642e+00  2.57787204e+00 -3.81314639e+00  4.79314642e+00
  2.57787204e+00 -3.81314639e+00  4.79314642e+00  2.57787204e+00 -3.81314639e+00
  4.79314642e+00  2.57787204e+00 -6.24762120e+00  1.55179550e+00  2.87991796e+00
 -6.24762120e+00  1.55179550e+00  2.87991796e+00 -4.09584464e+00 -1.29432160e+00
  6.26452565e+00 -4.09584464e+00 -1.29432160e+00  6.26452565e+00 -4.09584464e+00
 -1.29432160e+00  6.26452565e+00 -4.09584464e+00 -1.29432160e+00  6.26452565e+00
 -4.09584464e+00 -1.29432160e+00  6.26452565e+00 -4.09584464e+00 -1.29432160e+00
  6.26452565e+00 -4.09584464e+00 -1.29432160e+00  6.26452565e+00 -4.09584464e+00
 -1.29432160e+00  6.26452565e+00 -3.04510866e+00  2.40637481e+00  6.46848388e+00
 -3.04510866e+00  2.40637481e+00  6.46848388e+00 -4.98614344e+00 -5.07959522e-02
 -1.11055070e+00 -4.98614344e+00 -5.07959522e-02 -1.11055070e+00 -4.98614344e+00
 -5.07959522e-02 -1.11055070e+00 -4.98614344e+00 -5.07959522e-02 -1.11055070e+00
 -4.98614344e+00 -5.07959522e-02 -1.11055070e+00 -4.98614344e+00 -5.07959522e-02
 -1.11055070e+00 -4.98614344e+00 -5.07959522e-02 -1.11055070e+00 -4.98614344e+00
 -5.07959522e-02 -1.11055070e+00  6.63085601e+00 -4.83407975e-01 -3.11754270e+00
  6.63085601e+00 -4.83407975e-01 -3.11754270e+00  6.63085601e+00 -4.83407975e-01
 -3.11754270e+00  6.63085601e+00 -4.83407975e-01 -3.11754270e+00  6.63085601e+00
 -4.83407975e-01 -3.11754270e+00  6.63085601e+00 -4.83407975e-01 -3.11754270e+00
  6.63085601e+00 -4.83407975e-01 -3.11754270e+00  6.63085601e+00 -4.83407975e-01
 -3.11754270e+00  3.36142872e+00 -1.35849083e+00 -5.88328564e+00  3.36142872e+00
 -1.35849083e+00 -5.88328564e+00  3.36142872e+00 -1.35849083e+00 -5.88328564e+00
  3.36142872e+00 -1.35849083e+00 -5.88328564e+00  3.36142872e+00 -1.35849083e+00
 -5.88328564e+00  3.36142872e+00 -1.35849083e+00 -5.88328564e+00  3.36142872e+00
 -1.35849083e+00 -5.88328564e+00  3.36142872e+00 -1.35849083e+00 -5.88328564e+00
 -1.80539613e+00  5.29453200e+00  2.57209242e+00 -1.80539613e+00  5.29453200e+00
  2.57209242e+00 -4.73279680e+00  5.77566506e+00  4.15626699e+00 -4.73279680e+00
  5.77566506e+00  4.15626699e+00 -4.66300110e+00  5.48501998e+00  8.23151565e-01
 -4.66300110e+00  5.48501998e+00  8.23151565e-01 -3.36573913e+00 -3.71952217e+00
  4.87126866e+00 -3.36573913e+00 -3.71952217e+00  4.87126866e+00 -3.36573913e+00
 -3.71952217e+00  4.87126866e+00 -3.36573913e+00 -3.71952217e+00  4.87126866e+00
 -3.36573913e+00 -3.71952217e+00  4.87126866e+00 -3.36573913e+00 -3.71952217e+00
  4.87126866e+00 -3.36573913e+00 -3.71952217e+00  4.87126866e+00 -3.36573913e+00
 -3.71952217e+00  4.87126866e+00 -6.18033169e+00 -1.15535277e+00  6.35530281e+00
 -6.18033169e+00 -1.15535277e+00  6.35530281e+00 -3.40929395e+00 -1.40443892e+00
  8.21697711e+00 -3.40929395e+00 -1.40443892e+00  8.21697711e+00 -4.11730097e+00
 -3.76298144e+00  2.94375584e+00 -4.11730097e+00 -3.76298144e+00  2.94375584e+00
 -4.13602113e+00 -5.36340357e+00  5.87175250e+00 -4.13602113e+00 -5.36340357e+00
  5.87175250e+00 -1.30761193e+00 -3.91850140e+00  4.77099910e+00 -1.30761193e+00
 -3.91850140e+00  4.77099910e+00 -1.65541658e+00 -8.67230259e-01 -4.13221882e+00
 -1.65541658e+00 -8.67230259e-01 -4.13221882e+00  6.01512078e+00 -1.67664220e+00
 -5.48175774e+00  6.01512078e+00 -1.67664220e+00 -5.48175774e+00  6.01512078e+00
 -1.67664220e+00 -5.48175774e+00  6.01512078e+00 -1.67664220e+00 -5.48175774e+00
  6.01512078e+00 -1.67664220e+00 -5.48175774e+00  6.01512078e+00 -1.67664220e+00
 -5.48175774e+00  6.01512078e+00 -1.67664220e+00 -5.48175774e+00  6.01512078e+00
 -1.67664220e+00 -5.48175774e+00  7.05949913e+00 -7.53372299e-01 -7.00158256e+00
  7.05949913e+00 -7.53372299e-01 -7.00158256e+00  6.46481220e+00 -3.69954053e+00
 -5.35406854e+00  6.46481220e+00 -3.69954053e+00 -5.35406854e+00
Total Energy                               R     -7.467285046406349e+02
Alpha Orbital Energies                     R   N=         334
 -1.92143884e+01 -1.92086126e+01 -1.91416931e+01 -1.43360965e+01 -1.03189420e+01
 -1.02771265e+01 -1.02692090e+01 -1.02623262e+01 -1.02292146e+01 -1.02179742e+01
 -1.02098455e+01 -1.02083134e+01 -1.02061024e+01 -1.02047167e+01 -1.01949366e+01
 -1.01772108e+01 -1.14264536e+00 -1.05117696e+00 -1.03986285e+00 -9.17900673e-01
 -8.73618364e-01 -7.86836203e-01 -7.72453591e-01 -7.67369793e-01 -7.26458541e-01
 -6.97816273e-01 -6.58685760e-01 -6.38635120e-01 -6.32834258e-01 -6.06647388e-01
 -5.68315495e-01 -5.37036611e-01 -5.30874515e-01 -5.24183277e-01 -4.98099880e-01
 -4.93403477e-01 -4.73292937e-01 -4.61854351e-01 -4.55531336e-01 -4.42036116e-01
 -4.39066930e-01 -4.26221914e-01 -4.11607940e-01 -4.04351468e-01 -4.00743423e-01