Generated by Psi4
     FORCE                           RHF                       TESTBAS
Number of atoms                            I               34
Charge                                     I                0
Multiplicity                               I                1
Number of electrons                        I              126
Number of alpha electrons                  I               63
Number of beta electrons                   I               63
Number of basis functions                  I              357
Number of independent functions            I              357
Atomic numbers                             I   N=          34
           6           6           6           7           6           6
           6           6           6           1           1           6
           1           6           6           8           1           8
           8           6           1           1           1           1
           1           1           1           1           6           1
           1           1           1           1
Nuclear charges                            R   N=          34
  6.00000000e+00  6.00000000e+00  6.00000000e+00  7.00000000e+00  6.00000000e+00
  6.00000000e+00  6.00000000e+00  6.00000000e+00  6.00000000e+00  1.00000000e+00
  1.00000000e+00  6.00000000e+00  1.00000000e+00  6.00000000e+00  6.00000000e+00
  8.00000000e+00  1.00000000e+00  8.00000000e+00  8.00000000e+00  6.00000000e+00
  1.00000000e+00  1.00000000e+00  1.00000000e+00  1.00000000e+00  1.00000000e+00
  1.00000000e+00  1.00000000e+00  1.00000000e+00  6.00000000e+00  1.00000000e+00
  1.00000000e+00  1.00000000e+00  1.00000000e+00  1.00000000e+00
Current cartesian coordinates              R   N=         102
 -9.12895413e-02  5.51076374e-01 -8.90904525e-01 -2.17240297e+00  2.40818394e+00
 -4.30504335e-01 -2.51998276e+00  3.76713418e+00  2.13653532e+00 -2.70069066e+00
  2.03028805e+00  4.30962477e+00  1.46108345e+00 -4.08055814e-01  1.03898000e+00
  3.42348285e+00 -2.12330648e+00  5.28252016e-01  3.76241994e+00 -2.82354036e+00
 -1.96563074e+00  2.22704642e+00 -1.88205780e+00 -3.89667421e+00  2.96033256e-01
 -2.09303580e-01 -3.43512059e+00  1.08551462e+00  1.47890824e-01  2.97356773e+00
  4.61879781e+00 -2.86684205e+00  2.01927228e+00 -3.85466600e-01  5.73345630e+00
  2.40596608e+00 -4.31455858e+00  4.81211334e+00  1.90050393e+00 -4.84303173e+00
  2.78013425e-01  3.98918088e+00 -2.88650467e+00  3.39750662e+00  6.70602331e+00
 -3.56775174e+00  3.04157985e+00 -2.17163836e+00 -8.95130893e-01  5.39320532e-01
 -4.92408066e+00  5.55768872e+00 -4.39739309e+00 -2.96456681e+00  3.04063800e+00
 -2.83221858e+00 -6.18280543e+00  4.88351316e+00 -4.71641741e+00 -5.58012159e+00
  6.55990819e+00 -4.44090823e+00 -6.75110414e+00  4.06461989e+00 -6.60501689e+00
 -5.84207663e+00  1.41829817e+00  4.84237742e+00  2.88866368e+00 -8.37947939e-01
  7.14239662e+00  3.84979626e+00 -1.50159888e-01  6.74637839e+00  6.16368575e-01
 -1.16631480e+00  4.48065742e+00  7.06544253e+00 -3.09703381e+00  2.05321787e+00
  8.25804037e+00 -4.51986918e+00  4.70880819e+00  6.75606758e+00 -4.77655359e+00
 -1.99077401e+00  5.78067621e+00 -4.79044823e+00 -4.35859986e-01  2.04806362e+00
 -6.66216884e+00  1.29702246e+00  4.19048657e+00 -2.97094229e+00 -2.99263331e+00
  5.62306080e+00 -6.29493600e+00 -3.30975227e+00  5.28281088e+00 -5.05341955e+00
 -1.45992677e+00  7.76175221e+00
Integer atomic weights                     I   N=          34
          12          12          12          14          12          12
          12          12          12           1           1          12
           1          12          12          15           1          15
          15          12           1           1           1           1
           1           1           1           1          12           1
           1           1           1           1
Real atomic weights                        R   N=          34
  1.20000000e+01  1.20000000e+01  1.20000000e+01  1.40030740e+01  1.20000000e+01
  1.20000000e+01  1.20000000e+01  1.20000000e+01  1.20000000e+01  1.00782503e+00
  1.00782503e+00  1.20000000e+01  1.00782503e+00  1.20000000e+01  1.20000000e+01
  1.59949146e+01  1.00782503e+00  1.59949146e+01  1.59949146e+01  1.20000000e+01
  1.00782503e+00  1.00782503e+00  1.00782503e+00  1.00782503e+00  1.00782503e+00
  1.00782503e+00  1.00782503e+00  1.00782503e+00  1.20000000e+01  1.00782503e+00
  1.00782503e+00  1.00782503e+00  1.00782503e+00  1.00782503e+00
Number of primitive shells                 I              357
Number of contracted shells                I              170
Pure/Cartesian d shells                    I                1
Pure/Cartesian f shells                    I                1
Highest angular momentum                   I                2
Largest degree of contraction              I                6
Shell types                                I   N=         170
           0           0           1           0           1           2
           0           1           0           0           1           0
           1           2           0           1           0           0
           1           0           1           2           0           1
           0           0           1           0           1           2
           0           1           0           0           1           0
           1           2           0           1           0           0
           1           0           1           2           0           1
           0           0           1           0           1           2
           0           1           0           0           1           0
           1           2           0           1           0           0
           1           0           1           2           0           1
           0           0           0           0           0           0
           1           0           1           2           0           1
           0           0           0           0           1           0
           1           2           0           1           0           0
           1           0           1           2           0           1
           0           0           1           0           1           2
           0           1           0           0           0           0
           1           0           1           2           0           1
           0           0           1           0           1           2
           0           1           0           0           1           0
           1           2           0           1           0           0
           0           0           0           0           0           0
           0           0           0           0           0           0
           0           0           0           0           1           0
           1           2           0           1           0           0
           0           0           0           0           0           0
           0           0
Number of primitives per shell             I   N=         170
           6           3           3           1           1           1
           1           1           6           3           3           1
           1           1           1           1           6           3
           3           1           1           1           1           1
           6           3           3           1           1           1
           1           1           6           3           3           1
           1           1           1           1           6           3
           3           1           1           1           1           1
           6           3           3           1           1           1
           1           1           6           3           3           1
           1           1           1           1           6           3
           3           1           1           1           1           1
           3           1           3           1           6           3
           3           1           1           1           1           1
           3           1           6           3           3           1
           1           1           1           1           6           3
           3           1           1           1           1           1
           6           3           3           1           1           1
           1           1           3           1           6           3
           3           1           1           1           1           1
           6           3           3           1           1           1
           1           1           6           3           3           1
           1           1           1           1           3           1
           3           1           3           1           3           1
           3           1           3           1           3           1
           3           1           6           3           3           1
           1           1           1           1           3           1
           3           1           3           1           3           1
           3           1
Shell to atom map                          I   N=         170
           1           1           1           1           1           1
           1           1           2           2           2           2
           2           2           2           2           3           3
           3           3           3           3           3           3
           4           4           4           4           4           4
           4           4           5           5           5           5
           5           5           5           5           6           6
           6           6           6           6           6           6
           7           7           7           7           7           7
           7           7           8           8           8           8
           8           8           8           8           9           9
           9           9           9           9           9           9
          10          10          11          11          12          12
          12          12          12          12          12          12
          13          13          14          14          14          14
          14          14          14          14          15          15
          15          15          15          15          15          15
          16          16          16          16          16          16
          16          16          17          17          18          18
          18          18          18          18          18          18
          19          19          19          19          19          19
          19          19          20          20          20          20
          20          20          20          20          21          21
          22          22          23          23          24          24
          25          25          26          26          27          27
          28          28          29          29          29          29
          29          29          29          29          30          30
          31          31          32          32          33          33
          34          34
Primitive exponents                        R   N=         357
  3.04752490e+03  4.57369510e+02  1.03948690e+02  2.92101550e+01  9.28666300e+00
  3.16392700e+00  7.86827240e+00  1.88128850e+00  5.44249300e-01  7.86827240e+00
  1.88128850e+00  5.44249300e-01  1.68714400e-01  1.68714400e-01  8.00000000e-01
  4.38000000e-02  4.38000000e-02  3.04752490e+03  4.57369510e+02  1.03948690e+02
  2.92101550e+01  9.28666300e+00  3.16392700e+00  7.86827240e+00  1.88128850e+00
  5.44249300e-01  7.86827240e+00  1.88128850e+00  5.44249300e-01  1.68714400e-01
  1.68714400e-01  8.00000000e-01  4.38000000e-02  4.38000000e-02  3.04752490e+03
  4.57369510e+02  1.03948690e+02  2.92101550e+01  9.28666300e+00  3.16392700e+00
  7.86827240e+00  1.88128850e+00  5.44249300e-01  7.86827240e+00  1.88128850e+00
  5.44249300e-01  1.68714400e-01  1.68714400e-01  8.00000000e-01  4.38000000e-02
  4.38000000e-02  4.17351100e+03  6.27457900e+02  1.42902100e+02  4.02343300e+01
  1.28202100e+01  4.39043700e+00  1.16263580e+01  2.71628000e+00  7.72218000e-01
  1.16263580e+01  2.71628000e+00  7.72218000e-01  2.12031300e-01  2.12031300e-01
  8.00000000e-01  6.39000000e-02  6.39000000e-02  3.04752490e+03  4.57369510e+02
  1.03948690e+02  2.92101550e+01  9.28666300e+00  3.16392700e+00  7.86827240e+00
  1.88128850e+00  5.44249300e-01  7.86827240e+00  1.88128850e+00  5.44249300e-01
  1.68714400e-01  1.68714400e-01  8.00000000e-01  4.38000000e-02  4.38000000e-02
  3.04752490e+03  4.57369510e+02  1.03948690e+02  2.92101550e+01  9.28666300e+00
  3.16392700e+00  7.86827240e+00  1.88128850e+00  5.44249300e-01  7.86827240e+00
  1.88128850e+00  5.44249300e-01  1.68714400e-01  1.68714400e-01  8.00000000e-01
  4.38000000e-02  4.38000000e-02  3.04752490e+03  4.57369510e+02  1.03948690e+02
  2.92101550e+01  9.28666300e+00  3.16392700e+00  7.86827240e+00  1.88128850e+00
  5.44249300e-01  7.86827240e+00  1.88128850e+00  5.44249300e-01  1.68714400e-01
  1.68714400e-01  8.00000000e-01  4.38000000e-02  4.38000000e-02  3.04752490e+03
  4.57369510e+02  1.03948690e+02  2.92101550e+01  9.28666300e+00  3.16392700e+00
  7.86827240e+00  1.88128850e+00  5.44249300e-01  7.86827240e+00  1.88128850e+00
  5.44249300e-01  1.68714400e-01  1.68714400e-01  8.00000000e-01  4.38000000e-02
  4.38000000e-02  3.04752490e+03  4.57369510e+02  1.03948690e+02  2.92101550e+01
  9.28666300e+00  3.16392700e+00  7.86827240e+00  1.88128850e+00  5.44249300e-01
  7.86827240e+00  1.88128850e+00  5.44249300e-01  1.68714400e-01  1.68714400e-01
  8.00000000e-01  4.38000000e-02  4.38000000e-02  1.87311370e+01  2.82539370e+00
  6.40121700e-01  1.61277800e-01  1.87311370e+01  2.82539370e+00  6.40121700e-01
  1.61277800e-01  3.04752490e+03  4.57369510e+02  1.03948690e+02  2.92101550e+01
  9.28666300e+00  3.16392700e+00  7.86827240e+00  1.88128850e+00  5.44249300e-01
  7.86827240e+00  1.88128850e+00  5.44249300e-01  1.68714400e-01  1.68714400e-01
  8.00000000e-01  4.38000000e-02  4.38000000e-02  1.87311370e+01  2.82539370e+00
  6.40121700e-01  1.61277800e-01  3.04752490e+03  4.57369510e+02  1.03948690e+02
  2.92101550e+01  9.28666300e+00  3.16392700e+00  7.86827240e+00  1.88128850e+00
  5.44249300e-01  7.86827240e+00  1.88128850e+00  5.44249300e-01  1.68714400e-01
  1.68714400e-01  8.00000000e-01  4.38000000e-02  4.38000000e-02  3.04752490e+03
  4.57369510e+02  1.03948690e+02  2.92101550e+01  9.28666300e+00  3.16392700e+00
  7.86827240e+00  1.88128850e+00  5.44249300e-01  7.86827240e+00  1.88128850e+00
  5.44249300e-01  1.68714400e-01  1.68714400e-01  8.00000000e-01  4.38000000e-02
  4.38000000e-02  5.48467170e+03  8.25234950e+02  1.88046960e+02  5.29645000e+01
  1.68975700e+01  5.79963530e+00  1.55396160e+01  3.59993360e+00  1.01376180e+00
  1.55396160e+01  3.59993360e+00  1.01376180e+00  2.70005800e-01  2.70005800e-01
  8.00000000e-01  8.45000000e-02  8.45000000e-02  1.87311370e+01  2.82539370e+00
  6.40121700e-01  1.61277800e-01  5.48467170e+03  8.25234950e+02  1.88046960e+02
  5.29645000e+01  1.68975700e+01  5.79963530e+00  1.55396160e+01  3.59993360e+00
  1.01376180e+00  1.55396160e+01  3.59993360e+00  1.01376180e+00  2.70005800e-01
  2.70005800e-01  8.00000000e-01  8.45000000e-02  8.45000000e-02  5.48467170e+03
  8.25234950e+02  1.88046960e+02  5.29645000e+01  1.68975700e+01  5.79963530e+00
  1.55396160e+01  3.59993360e+00  1.01376180e+00  1.55396160e+01  3.59993360e+00
  1.01376180e+00  2.70005800e-01  2.70005800e-01  8.00000000e-01  8.45000000e-02
  8.45000000e-02  3.04752490e+03  4.57369510e+02  1.03948690e+02  2.92101550e+01
  9.28666300e+00  3.16392700e+00  7.86827240e+00  1.88128850e+00  5.44249300e-01
  7.86827240e+00  1.88128850e+00  5.44249300e-01  1.68714400e-01  1.68714400e-01
  8.00000000e-01  4.38000000e-02  4.38000000e-02  1.87311370e+01  2.82539370e+00
  6.40121700e-01  1.61277800e-01  1.87311370e+01  2.82539370e+00  6.40121700e-01
  1.61277800e-01  1.87311370e+01  2.82539370e+00  6.40121700e-01  1.61277800e-01
  1.87311370e+01  2.82539370e+00  6.40121700e-01  1.61277800e-01  1.87311370e+01
  2.82539370e+00  6.40121700e-01  1.61277800e-01  1.87311370e+01  2.82539370e+00
  6.40121700e-01  1.61277800e-01  1.87311370e+01  2.82539370e+00  6.40121700e-01
  1.61277800e-01  1.87311370e+01  2.82539370e+00  6.40121700e-01  1.61277800e-01
  3.04752490e+03  4.57369510e+02  1.03948690e+02  2.92101550e+01  9.28666300e+00
  3.16392700e+00  7.86827240e+00  1.88128850e+00  5.44249300e-01  7.86827240e+00
  1.88128850e+00  5.44249300e-01  1.68714400e-01  1.68714400e-01  8.00000000e-01
  4.38000000e-02  4.38000000e-02  1.87311370e+01  2.82539370e+00  6.40121700e-01
  1.61277800e-01  1.87311370e+01  2.82539370e+00  6.40121700e-01  1.61277800e-01
  1.87311370e+01  2.82539370e+00  6.40121700e-01  1.61277800e-01  1.87311370e+01
  2.82539370e+00  6.40121700e-01  1.61277800e-01  1.87311370e+01  2.82539370e+00
  6.40121700e-01  1.61277800e-01
Contraction coefficients                   R   N=         357
  1.83470016e-03  1.40373012e-02  6.88426061e-02  2.32184421e-01  4.67941342e-01
  3.62312032e-01 -1.19332409e-01 -1.60854212e-01  1.14345648e+00  6.89990956e-02
  3.16423980e-01  7.44308252e-01  1.00000000e+00  1.00000000e+00  1.00000000e+00
  1.00000000e+00  1.00000000e+00  1.83470016e-03  1.40373012e-02  6.88426061e-02
  2.32184421e-01  4.67941342e-01  3.62312032e-01 -1.19332409e-01 -1.60854212e-01
  1.14345648e+00  6.89990956e-02  3.16423980e-01  7.44308252e-01  1.00000000e+00
  1.00000000e+00  1.00000000e+00  1.00000000e+00  1.00000000e+00  1.83470016e-03
  1.40373012e-02  6.88426061e-02  2.32184421e-01  4.67941342e-01  3.62312032e-01
 -1.19332409e-01 -1.60854212e-01  1.14345648e+00  6.89990956e-02  3.16423980e-01
  7.44308252e-01  1.00000000e+00  1.00000000e+00  1.00000000e+00  1.00000000e+00
  1.00000000e+00  1.83479944e-03  1.39949958e-02  6.85869792e-02  2.32240930e-01
  4.69069858e-01  3.60454891e-01 -1.14961023e-01 -1.69118034e-01  1.14585223e+00
  6.75800232e-02  3.23907111e-01  7.40895255e-01  1.00000000e+00  1.00000000e+00
  1.00000000e+00  1.00000000e+00  1.00000000e+00  1.83470016e-03  1.40373012e-02
  6.88426061e-02  2.32184421e-01  4.67941342e-01  3.62312032e-01 -1.19332409e-01
 -1.60854212e-01  1.14345648e+00  6.89990956e-02  3.16423980e-01  7.44308252e-01
  1.00000000e+00  1.00000000e+00  1.00000000e+00  1.00000000e+00  1.00000000e+00
  1.83470016e-03  1.40373012e-02  6.88426061e-02  2.32184421e-01  4.67941342e-01
  3.62312032e-01 -1.19332409e-01 -1.60854212e-01  1.14345648e+00  6.89990956e-02
  3.16423980e-01  7.44308252e-01  1.00000000e+00  1.00000000e+00  1.00000000e+00
  1.00000000e+00  1.00000000e+00  1.83470016e-03  1.40373012e-02  6.88426061e-02
  2.32184421e-01  4.67941342e-01  3.62312032e-01 -1.19332409e-01 -1.60854212e-01
  1.14345648e+00  6.89990956e-02  3.16423980e-01  7.44308252e-01  1.00000000e+00
  1.00000000e+00  1.00000000e+00  1.00000000e+00  1.00000000e+00  1.83470016e-03
  1.40373012e-02  6.88426061e-02  2.32184421e-01  4.67941342e-01  3.62312032e-01
 -1.19332409e-01 -1.60854212e-01  1.14345648e+00  6.89990956e-02  3.16423980e-01
  7.44308252e-01  1.00000000e+00  1.00000000e+00  1.00000000e+00  1.00000000e+00
  1.00000000e+00  1.83470016e-03  1.40373012e-02  6.88426061e-02  2.32184421e-01
  4.67941342e-01  3.62312032e-01 -1.19332409e-01 -1.60854212e-01  1.14345648e+00
  6.89990956e-02  3.16423980e-01  7.44308252e-01  1.00000000e+00  1.00000000e+00
  1.00000000e+00  1.00000000e+00  1.00000000e+00  3.34945995e-02  2.34726947e-01
  8.13757318e-01  1.00000000e+00  3.34945995e-02  2.34726947e-01  8.13757318e-01
  1.00000000e+00  1.83470016e-03  1.40373012e-02  6.88426061e-02  2.32184421e-01
  4.67941342e-01  3.62312032e-01 -1.19332409e-01 -1.60854212e-01  1.14345648e+00
  6.89990956e-02  3.16423980e-01  7.44308252e-01  1.00000000e+00  1.00000000e+00
  1.00000000e+00  1.00000000e+00  1.00000000e+00  3.34945995e-02  2.34726947e-01
  8.13757318e-01  1.00000000e+00  1.83470016e-03  1.40373012e-02  6.88426061e-02
  2.32184421e-01  4.67941342e-01  3.62312032e-01 -1.19332409e-01 -1.60854212e-01
  1.14345648e+00  6.89990956e-02  3.16423980e-01  7.44308252e-01  1.00000000e+00
  1.00000000e+00  1.00000000e+00  1.00000000e+00  1.00000000e+00  1.83470016e-03
  1.40373012e-02  6.88426061e-02  2.32184421e-01  4.67941342e-01  3.62312032e-01
 -1.19332409e-01 -1.60854212e-01  1.14345648e+00  6.89990956e-02  3.16423980e-01
  7.44308252e-01  1.00000000e+00  1.00000000e+00  1.00000000e+00  1.00000000e+00
  1.00000000e+00  1.83109981e-03  1.39500985e-02  6.84450927e-02  2.32714275e-01
  4.70192950e-01  3.58520862e-01 -1.10777504e-01 -1.48026305e-01  1.13076704e+00
  7.08742995e-02  3.39752798e-01  7.27158595e-01  1.00000000e+00  1.00000000e+00
  1.00000000e+00  1.00000000e+00  1.00000000e+00  3.34945995e-02  2.34726947e-01
  8.13757318e-01  1.00000000e+00  1.83109981e-03  1.39500985e-02  6.84450927e-02
  2.32714275e-01  4.70192950e-01  3.58520862e-01 -1.10777504e-01 -1.48026305e-01
  1.13076704e+00  7.08742995e-02  3.39752798e-01  7.27158595e-01  1.00000000e+00
  1.00000000e+00  1.00000000e+00  1.00000000e+00  1.00000000e+00  1.83109981e-03
  1.39500985e-02  6.84450927e-02  2.32714275e-01  4.70192950e-01  3.58520862e-01
 -1.10777504e-01 -1.48026305e-01  1.13076704e+00  7.08742995e-02  3.39752798e-01
  7.27158595e-01  1.00000000e+00  1.00000000e+00  1.00000000e+00  1.00000000e+00
  1.00000000e+00  1.83470016e-03  1.40373012e-02  6.88426061e-02  2.32184421e-01
  4.67941342e-01  3.62312032e-01 -1.19332409e-01 -1.60854212e-01  1.14345648e+00
  6.89990956e-02  3.16423980e-01  7.44308252e-01  1.00000000e+00  1.00000000e+00
  1.00000000e+00  1.00000000e+00  1.00000000e+00  3.34945995e-02  2.34726947e-01
  8.13757318e-01  1.00000000e+00  3.34945995e-02  2.34726947e-01  8.13757318e-01
  1.00000000e+00  3.34945995e-02  2.34726947e-01  8.13757318e-01  1.00000000e+00
  3.34945995e-02  2.34726947e-01  8.13757318e-01  1.00000000e+00  3.34945995e-02
  2.34726947e-01  8.13757318e-01  1.00000000e+00  3.34945995e-02  2.34726947e-01
  8.13757318e-01  1.00000000e+00  3.34945995e-02  2.34726947e-01  8.13757318e-01
  1.00000000e+00  3.34945995e-02  2.34726947e-01  8.13757318e-01  1.00000000e+00
  1.83470016e-03  1.40373012e-02  6.88426061e-02  2.32184421e-01  4.67941342e-01
  3.62312032e-01 -1.19332409e-01 -1.60854212e-01  1.14345648e+00  6.89990956e-02
  3.16423980e-01  7.44308252e-01  1.00000000e+00  1.00000000e+00  1.00000000e+00
  1.00000000e+00  1.00000000e+00  3.34945995e-02  2.34726947e-01  8.13757318e-01
  1.00000000e+00  3.34945995e-02  2.34726947e-01  8.13757318e-01  1.00000000e+00
  3.34945995e-02  2.34726947e-01  8.13757318e-01  1.00000000e+00  3.34945995e-02
  2.34726947e-01  8.13757318e-01  1.00000000e+00  3.34945995e-02  2.34726947e-01
  8.13757318e-01  1.00000000e+00
Coordinates of each shell                  R   N=         510
 -9.12895413e-02  5.51076374e-01 -8.90904525e-01 -9.12895413e-02  5.51076374e-01
 -8.90904525e-01 -9.12895413e-02  5.51076374e-01 -8.90904525e-01 -9.12895413e-02
  5.51076374e-01 -8.90904525e-01 -9.12895413e-02  5.51076374e-01 -8.90904525e-01
 -9.12895413e-02  5.51076374e-01 -8.90904525e-01 -9.12895413e-02  5.51076374e-01
 -8.90904525e-01 -9.12895413e-02  5.51076374e-01 -8.90904525e-01 -2.17240297e+00
  2.40818394e+00 -4.30504335e-01 -2.17240297e+00  2.40818394e+00 -4.30504335e-01
 -2.17240297e+00  2.40818394e+00 -4.30504335e-01 -2.17240297e+00  2.40818394e+00
 -4.30504335e-01 -2.17240297e+00  2.40818394e+00 -4.30504335e-01 -2.17240297e+00
  2.40818394e+00 -4.30504335e-01 -2.17240297e+00  2.40818394e+00 -4.30504335e-01
 -2.17240297e+00  2.40818394e+00 -4.30504335e-01 -2.51998276e+00  3.76713418e+00
  2.13653532e+00 -2.51998276e+00  3.76713418e+00  2.13653532e+00 -2.51998276e+00
  3.76713418e+00  2.13653532e+00 -2.51998276e+00  3.76713418e+00  2.13653532e+00
 -2.51998276e+00  3.76713418e+00  2.13653532e+00 -2.51998276e+00  3.76713418e+00
  2.13653532e+00 -2.51998276e+00  3.76713418e+00  2.13653532e+00 -2.51998276e+00
  3.76713418e+00  2.13653532e+00 -2.70069066e+00  2.03028805e+00  4.30962477e+00
 -2.70069066e+00  2.03028805e+00  4.30962477e+00 -2.70069066e+00  2.03028805e+00
  4.30962477e+00 -2.70069066e+00  2.03028805e+00  4.30962477e+00 -2.70069066e+00
  2.03028805e+00  4.30962477e+00 -2.70069066e+00  2.03028805e+00  4.30962477e+00
 -2.70069066e+00  2.03028805e+00  4.30962477e+00 -2.70069066e+00  2.03028805e+00
  4.30962477e+00  1.46108345e+00 -4.08055814e-01  1.03898000e+00  1.46108345e+00
 -4.08055814e-01  1.03898000e+00  1.46108345e+00 -4.08055814e-01  1.03898000e+00
  1.46108345e+00 -4.08055814e-01  1.03898000e+00  1.46108345e+00 -4.08055814e-01
  1.03898000e+00  1.46108345e+00 -4.08055814e-01  1.03898000e+00  1.46108345e+00
 -4.08055814e-01  1.03898000e+00  1.46108345e+00 -4.08055814e-01  1.03898000e+00
  3.42348285e+00 -2.12330648e+00  5.28252016e-01  3.42348285e+00 -2.12330648e+00
  5.28252016e-01  3.42348285e+00 -2.12330648e+00  5.28252016e-01  3.42348285e+00
 -2.12330648e+00  5.28252016e-01  3.42348285e+00 -2.12330648e+00  5.28252016e-01
  3.42348285e+00 -2.12330648e+00  5.28252016e-01  3.42348285e+00 -2.12330648e+00
  5.28252016e-01  3.42348285e+00 -2.12330648e+00  5.28252016e-01  3.76241994e+00
 -2.82354036e+00 -1.96563074e+00  3.76241994e+00 -2.82354036e+00 -1.96563074e+00
  3.76241994e+00 -2.82354036e+00 -1.96563074e+00  3.76241994e+00 -2.82354036e+00
 -1.96563074e+00  3.76241994e+00 -2.82354036e+00 -1.96563074e+00  3.76241994e+00
 -2.82354036e+00 -1.96563074e+00  3.76241994e+00 -2.82354036e+00 -1.96563074e+00
  3.76241994e+00 -2.82354036e+00 -1.96563074e+00  2.22704642e+00 -1.88205780e+00
 -3.89667421e+00  2.22704642e+00 -1.88205780e+00 -3.89667421e+00  2.22704642e+00
 -1.88205780e+00 -3.89667421e+00  2.22704642e+00 -1.88205780e+00 -3.89667421e+00
  2.22704642e+00 -1.88205780e+00 -3.89667421e+00  2.22704642e+00 -1.88205780e+00
 -3.89667421e+00  2.22704642e+00 -1.88205780e+00 -3.89667421e+00  2.22704642e+00
 -1.88205780e+00 -3.89667421e+00  2.96033256e-01 -2.09303580e-01 -3.43512059e+00
  2.96033256e-01 -2.09303580e-01 -3.43512059e+00  2.96033256e-01 -2.09303580e-01
 -3.43512059e+00  2.96033256e-01 -2.09303580e-01 -3.43512059e+00  2.96033256e-01
 -2.09303580e-01 -3.43512059e+00  2.96033256e-01 -2.09303580e-01 -3.43512059e+00
  2.96033256e-01 -2.09303580e-01 -3.43512059e+00  2.96033256e-01 -2.09303580e-01
 -3.43512059e+00  1.08551462e+00  1.47890824e-01  2.97356773e+00  1.08551462e+00
  1.47890824e-01  2.97356773e+00  4.61879781e+00 -2.86684205e+00  2.01927228e+00
  4.61879781e+00 -2.86684205e+00  2.01927228e+00 -3.85466600e-01  5.73345630e+00
  2.40596608e+00 -3.85466600e-01  5.73345630e+00  2.40596608e+00 -3.85466600e-01
  5.73345630e+00  2.40596608e+00 -3.85466600e-01  5.73345630e+00  2.40596608e+00
 -3.85466600e-01  5.73345630e+00  2.40596608e+00 -3.85466600e-01  5.73345630e+00
  2.40596608e+00 -3.85466600e-01  5.73345630e+00  2.40596608e+00 -3.85466600e-01
  5.73345630e+00  2.40596608e+00 -4.31455858e+00  4.81211334e+00  1.90050393e+00
 -4.31455858e+00  4.81211334e+00  1.90050393e+00 -4.84303173e+00  2.78013425e-01
  3.98918088e+00 -4.84303173e+00  2.78013425e-01  3.98918088e+00 -4.84303173e+00
  2.78013425e-01  3.98918088e+00 -4.84303173e+00  2.78013425e-01  3.98918088e+00
 -4.84303173e+00  2.78013425e-01  3.98918088e+00 -4.84303173e+00  2.78013425e-01
  3.98918088e+00 -4.84303173e+00  2.78013425e-01  3.98918088e+00 -4.84303173e+00
  2.78013425e-01  3.98918088e+00 -2.88650467e+00  3.39750662e+00  6.70602331e+00
 -2.88650467e+00  3.39750662e+00  6.70602331e+00 -2.88650467e+00  3.39750662e+00
  6.70602331e+00 -2.88650467e+00  3.39750662e+00  6.70602331e+00 -2.88650467e+00
  3.39750662e+00  6.70602331e+00 -2.88650467e+00  3.39750662e+00  6.70602331e+00
 -2.88650467e+00  3.39750662e+00  6.70602331e+00 -2.88650467e+00  3.39750662e+00
  6.70602331e+00 -3.56775174e+00  3.04157985e+00 -2.17163836e+00 -3.56775174e+00
  3.04157985e+00 -2.17163836e+00 -3.56775174e+00  3.04157985e+00 -2.17163836e+00
 -3.56775174e+00  3.04157985e+00 -2.17163836e+00 -3.56775174e+00  3.04157985e+00
 -2.17163836e+00 -3.56775174e+00  3.04157985e+00 -2.17163836e+00 -3.56775174e+00
  3.04157985e+00 -2.17163836e+00 -3.56775174e+00  3.04157985e+00 -2.17163836e+00
 -8.95130893e-01  5.39320532e-01 -4.92408066e+00 -8.95130893e-01  5.39320532e-01
 -4.92408066e+00  5.55768872e+00 -4.39739309e+00 -2.96456681e+00  5.55768872e+00
 -4.39739309e+00 -2.96456681e+00  5.55768872e+00 -4.39739309e+00 -2.96456681e+00
  5.55768872e+00 -4.39739309e+00 -2.96456681e+00  5.55768872e+00 -4.39739309e+00
 -2.96456681e+00  5.55768872e+00 -4.39739309e+00 -2.96456681e+00  5.55768872e+00
 -4.39739309e+00 -2.96456681e+00  5.55768872e+00 -4.39739309e+00 -2.96456681e+00
  3.04063800e+00 -2.83221858e+00 -6.18280543e+00  3.04063800e+00 -2.83221858e+00
 -6.18280543e+00  3.04063800e+00 -2.83221858e+00 -6.18280543e+00  3.04063800e+00
 -2.83221858e+00 -6.18280543e+00  3.04063800e+00 -2.83221858e+00 -6.18280543e+00
  3.04063800e+00 -2.83221858e+00 -6.18280543e+00  3.04063800e+00 -2.83221858e+00
 -6.18280543e+00  3.04063800e+00 -2.83221858e+00 -6.18280543e+00  4.88351316e+00
 -4.71641741e+00 -5.58012159e+00  4.88351316e+00 -4.71641741e+00 -5.58012159e+00
  4.88351316e+00 -4.71641741e+00 -5.58012159e+00  4.88351316e+00 -4.71641741e+00
 -5.58012159e+00  4.88351316e+00 -4.71641741e+00 -5.58012159e+00  4.88351316e+00
 -4.71641741e+00 -5.58012159e+00  4.88351316e+00 -4.71641741e+00 -5.58012159e+00
  4.88351316e+00 -4.71641741e+00 -5.58012159e+00  6.55990819e+00 -4.44090823e+00
 -6.75110414e+00  6.55990819e+00 -4.44090823e+00 -6.75110414e+00  4.06461989e+00
 -6.60501689e+00 -5.84207663e+00  4.06461989e+00 -6.60501689e+00 -5.84207663e+00
  1.41829817e+00  4.84237742e+00  2.88866368e+00  1.41829817e+00  4.84237742e+00
  2.88866368e+00 -8.37947939e-01  7.14239662e+00  3.84979626e+00 -8.37947939e-01