Generated by Psi4
     FORCE                           RHF                       TESTBAS
Number of atoms                            I               28
Charge                                     I                0
Multiplicity                               I                1
Number of electrons                        I              112
Number of alpha electrons                  I               56
Number of beta electrons                   I               56
Number of basis functions                  I              298
Number of independent functions            I              298
Atomic numbers                             I   N=          28
           6           6           6           7           6           6
           6           6           6           1           1           1
          17           1           6           1           1           1
           1           6           1           1           1           6
           8           1           1           1
Nuclear charges                            R   N=          28
  6.00000000e+00  6.00000000e+00  6.00000000e+00  7.00000000e+00  6.00000000e+00
  6.00000000e+00  6.00000000e+00  6.00000000e+00  6.00000000e+00  1.00000000e+00
  1.00000000e+00  1.00000000e+00  1.70000000e+01  1.00000000e+00  6.00000000e+00
  1.00000000e+00  1.00000000e+00  1.00000000e+00  1.00000000e+00  6.00000000e+00
  1.00000000e+00  1.00000000e+00  1.00000000e+00  6.00000000e+00  8.00000000e+00
  1.00000000e+00  1.00000000e+00  1.00000000e+00
Current cartesian coordinates              R   N=          84
 -7.42777171e-01  3.24487372e-01 -1.08764950e+00 -3.40227455e+00  1.08991332e+00
 -4.62938733e-01 -4.11085679e+00  2.42198988e+00  2.03650146e+00 -3.08833245e+00
  1.17461413e+00  4.28769882e+00  1.29192089e+00  5.04175752e-01  6.11086934e-01
  3.72435551e+00 -2.06462624e-01 -1.20992496e-01  4.12585825e+00 -1.10292245e+00
 -2.56700989e+00  2.13561957e+00 -1.30688511e+00 -4.29243739e+00 -2.80408008e-01
 -5.93458385e-01 -3.54059356e+00  9.49375085e-01  1.14609231e+00  2.52537445e+00
 -1.85352028e+00 -7.30780726e-01 -4.84936200e+00  5.29063700e+00 -7.36223283e-02
  1.19650743e+00  7.18298575e+00 -1.99864163e+00 -3.49609751e+00  2.48275473e+00
 -2.00964130e+00 -6.18772320e+00 -3.25491880e+00  5.19922744e+00  1.94498629e+00
 -6.19624983e+00  2.38925353e+00  2.02537385e+00 -1.19310676e+00  5.36309231e+00
  1.91455901e+00 -3.96401346e+00  6.21058895e+00  3.61106532e+00 -4.01856967e+00
  6.13829761e+00  2.67120522e-01 -4.22110466e+00 -1.29996116e+00  4.82847822e+00
 -3.35583357e+00  2.33589035e+00  5.80263025e+00 -3.73273895e+00 -2.58003185e+00
  3.27143792e+00 -6.30830663e+00 -1.19871872e+00  4.88083759e+00 -3.22450220e+00
 -2.37496332e+00  7.31371592e+00 -5.08647922e+00  7.79878586e-01 -2.02307394e+00
 -1.16463483e+00 -2.57676833e+00  7.25832124e+00 -4.05480677e+00 -4.23513161e+00
  7.68626064e+00 -3.70753373e+00 -1.14300727e+00  8.91246481e+00
Integer atomic weights                     I   N=          28
          12          12          12          14          12          12
          12          12          12           1           1           1
          34           1          12           1           1           1
           1          12           1           1           1          12
          15           1           1           1
Real atomic weights                        R   N=          28
  1.20000000e+01  1.20000000e+01  1.20000000e+01  1.40030740e+01  1.20000000e+01
  1.20000000e+01  1.20000000e+01  1.20000000e+01  1.20000000e+01  1.00782503e+00
  1.00782503e+00  1.00782503e+00  3.49688527e+01  1.00782503e+00  1.20000000e+01
  1.00782503e+00  1.00782503e+00  1.00782503e+00  1.00782503e+00  1.20000000e+01
  1.00782503e+00  1.00782503e+00  1.00782503e+00  1.20000000e+01  1.59949146e+01
  1.00782503e+00  1.00782503e+00  1.00782503e+00
Number of primitive shells                 I              306
Number of contracted shells                I              142
Pure/Cartesian d shells                    I                1
Pure/Cartesian f shells                    I                1
Highest angular momentum                   I                2
Largest degree of contraction              I                6
Shell types                                I   N=         142
           0           0           1           0           1           2
           0           1           0           0           1           0
           1           2           0           1           0           0
           1           0           1           2           0           1
           0           0           1           0           1           2
           0           1           0           0           1           0
           1           2           0           1           0           0
           1           0           1           2           0           1
           0           0           1           0           1           2
           0           1           0           0           1           0
           1           2           0           1           0           0
           1           0           1           2           0           1
           0           0           0           0           0           0
           0           0           1           0           1           0
           1           2           0           1           0           0
           0           0           1           0           1           2
           0           1           0           0           0           0
           0           0           0           0           0           0
           1           0           1           2           0           1
           0           0           0           0           0           0
           0           0           1           0           1           2
           0           1           0           0           1           0
           1           2           0           1           0           0
           0           0           0           0
Number of primitives per shell             I   N=         142
           6           3           3           1           1           1
           1           1           6           3           3           1
           1           1           1           1           6           3
           3           1           1           1           1           1
           6           3           3           1           1           1
           1           1           6           3           3           1
           1           1           1           1           6           3
           3           1           1           1           1           1
           6           3           3           1           1           1
           1           1           6           3           3           1
           1           1           1           1           6           3
           3           1           1           1           1           1
           3           1           3           1           3           1
           6           6           6           3           3           1
           1           1           1           1           3           1
           6           3           3           1           1           1
           1           1           3           1           3           1
           3           1           3           1           6           3
           3           1           1           1           1           1
           3           1           3           1           3           1
           6           3           3           1           1           1
           1           1           6           3           3           1
           1           1           1           1           3           1
           3           1           3           1
Shell to atom map                          I   N=         142
           1           1           1           1           1           1
           1           1           2           2           2           2
           2           2           2           2           3           3
           3           3           3           3           3           3
           4           4           4           4           4           4
           4           4           5           5           5           5
           5           5           5           5           6           6
           6           6           6           6           6           6
           7           7           7           7           7           7
           7           7           8           8           8           8
           8           8           8           8           9           9
           9           9           9           9           9           9
          10          10          11          11          12          12
          13          13          13          13          13          13
          13          13          13          13          14          14
          15          15          15          15          15          15
          15          15          16          16          17          17
          18          18          19          19          20          20
          20          20          20          20          20          20
          21          21          22          22          23          23
          24          24          24          24          24          24
          24          24          25          25          25          25
          25          25          25          25          26          26
          27          27          28          28
Primitive exponents                        R   N=         306
  3.04752490e+03  4.57369510e+02  1.03948690e+02  2.92101550e+01  9.28666300e+00
  3.16392700e+00  7.86827240e+00  1.88128850e+00  5.44249300e-01  7.86827240e+00
  1.88128850e+00  5.44249300e-01  1.68714400e-01  1.68714400e-01  8.00000000e-01
  4.38000000e-02  4.38000000e-02  3.04752490e+03  4.57369510e+02  1.03948690e+02
  2.92101550e+01  9.28666300e+00  3.16392700e+00  7.86827240e+00  1.88128850e+00
  5.44249300e-01  7.86827240e+00  1.88128850e+00  5.44249300e-01  1.68714400e-01
  1.68714400e-01  8.00000000e-01  4.38000000e-02  4.38000000e-02  3.04752490e+03
  4.57369510e+02  1.03948690e+02  2.92101550e+01  9.28666300e+00  3.16392700e+00
  7.86827240e+00  1.88128850e+00  5.44249300e-01  7.86827240e+00  1.88128850e+00
  5.44249300e-01  1.68714400e-01  1.68714400e-01  8.00000000e-01  4.38000000e-02
  4.38000000e-02  4.17351100e+03  6.27457900e+02  1.42902100e+02  4.02343300e+01
  1.28202100e+01  4.39043700e+00  1.16263580e+01  2.71628000e+00  7.72218000e-01
  1.16263580e+01  2.71628000e+00  7.72218000e-01  2.12031300e-01  2.12031300e-01
  8.00000000e-01  6.39000000e-02  6.39000000e-02  3.04752490e+03  4.57369510e+02
  1.03948690e+02  2.92101550e+01  9.28666300e+00  3.16392700e+00  7.86827240e+00
  1.88128850e+00  5.44249300e-01  7.86827240e+00  1.88128850e+00  5.44249300e-01
  1.68714400e-01  1.68714400e-01  8.00000000e-01  4.38000000e-02  4.38000000e-02
  3.04752490e+03  4.57369510e+02  1.03948690e+02  2.92101550e+01  9.28666300e+00
  3.16392700e+00  7.86827240e+00  1.88128850e+00  5.44249300e-01  7.86827240e+00
  1.88128850e+00  5.44249300e-01  1.68714400e-01  1.68714400e-01  8.00000000e-01
  4.38000000e-02  4.38000000e-02  3.04752490e+03  4.57369510e+02  1.03948690e+02
  2.92101550e+01  9.28666300e+00  3.16392700e+00  7.86827240e+00  1.88128850e+00
  5.44249300e-01  7.86827240e+00  1.88128850e+00  5.44249300e-01  1.68714400e-01
  1.68714400e-01  8.00000000e-01  4.38000000e-02  4.38000000e-02  3.04752490e+03
  4.57369510e+02  1.03948690e+02  2.92101550e+01  9.28666300e+00  3.16392700e+00
  7.86827240e+00  1.88128850e+00  5.44249300e-01  7.86827240e+00  1.88128850e+00
  5.44249300e-01  1.68714400e-01  1.68714400e-01  8.00000000e-01  4.38000000e-02
  4.38000000e-02  3.04752490e+03  4.57369510e+02  1.03948690e+02  2.92101550e+01
  9.28666300e+00  3.16392700e+00  7.86827240e+00  1.88128850e+00  5.44249300e-01
  7.86827240e+00  1.88128850e+00  5.44249300e-01  1.68714400e-01  1.68714400e-01
  8.00000000e-01  4.38000000e-02  4.38000000e-02  1.87311370e+01  2.82539370e+00
  6.40121700e-01  1.61277800e-01  1.87311370e+01  2.82539370e+00  6.40121700e-01
  1.61277800e-01  1.87311370e+01  2.82539370e+00  6.40121700e-01  1.61277800e-01
  2.51801000e+04  3.78035000e+03  8.60474000e+02  2.42145000e+02  7.73349000e+01
  2.62470000e+01  4.91765000e+02  1.16984000e+02  3.74153000e+01  1.37834000e+01
  5.45215000e+00  2.22588000e+00  4.91765000e+02  1.16984000e+02  3.74153000e+01
  1.37834000e+01  5.45215000e+00  2.22588000e+00  3.18649000e+00  1.14427000e+00
  4.20377000e-01  3.18649000e+00  1.14427000e+00  4.20377000e-01  1.42657000e-01
  1.42657000e-01  7.50000000e-01  4.83000000e-02  4.83000000e-02  1.87311370e+01
  2.82539370e+00  6.40121700e-01  1.61277800e-01  3.04752490e+03  4.57369510e+02
  1.03948690e+02  2.92101550e+01  9.28666300e+00  3.16392700e+00  7.86827240e+00
  1.88128850e+00  5.44249300e-01  7.86827240e+00  1.88128850e+00  5.44249300e-01
  1.68714400e-01  1.68714400e-01  8.00000000e-01  4.38000000e-02  4.38000000e-02
  1.87311370e+01  2.82539370e+00  6.40121700e-01  1.61277800e-01  1.87311370e+01
  2.82539370e+00  6.40121700e-01  1.61277800e-01  1.87311370e+01  2.82539370e+00
  6.40121700e-01  1.61277800e-01  1.87311370e+01  2.82539370e+00  6.40121700e-01
  1.61277800e-01  3.04752490e+03  4.57369510e+02  1.03948690e+02  2.92101550e+01
  9.28666300e+00  3.16392700e+00  7.86827240e+00  1.88128850e+00  5.44249300e-01
  7.86827240e+00  1.88128850e+00  5.44249300e-01  1.68714400e-01  1.68714400e-01
  8.00000000e-01  4.38000000e-02  4.38000000e-02  1.87311370e+01  2.82539370e+00
  6.40121700e-01  1.61277800e-01  1.87311370e+01  2.82539370e+00  6.40121700e-01
  1.61277800e-01  1.87311370e+01  2.82539370e+00  6.40121700e-01  1.61277800e-01
  3.04752490e+03  4.57369510e+02  1.03948690e+02  2.92101550e+01  9.28666300e+00
  3.16392700e+00  7.86827240e+00  1.88128850e+00  5.44249300e-01  7.86827240e+00
  1.88128850e+00  5.44249300e-01  1.68714400e-01  1.68714400e-01  8.00000000e-01
  4.38000000e-02  4.38000000e-02  5.48467170e+03  8.25234950e+02  1.88046960e+02
  5.29645000e+01  1.68975700e+01  5.79963530e+00  1.55396160e+01  3.59993360e+00
  1.01376180e+00  1.55396160e+01  3.59993360e+00  1.01376180e+00  2.70005800e-01
  2.70005800e-01  8.00000000e-01  8.45000000e-02  8.45000000e-02  1.87311370e+01
  2.82539370e+00  6.40121700e-01  1.61277800e-01  1.87311370e+01  2.82539370e+00
  6.40121700e-01  1.61277800e-01  1.87311370e+01  2.82539370e+00  6.40121700e-01
  1.61277800e-01
Contraction coefficients                   R   N=         306
  1.83470016e-03  1.40373012e-02  6.88426061e-02  2.32184421e-01  4.67941342e-01
  3.62312032e-01 -1.19332409e-01 -1.60854212e-01  1.14345648e+00  6.89990956e-02
  3.16423980e-01  7.44308252e-01  1.00000000e+00  1.00000000e+00  1.00000000e+00
  1.00000000e+00  1.00000000e+00  1.83470016e-03  1.40373012e-02  6.88426061e-02
  2.32184421e-01  4.67941342e-01  3.62312032e-01 -1.19332409e-01 -1.60854212e-01
  1.14345648e+00  6.89990956e-02  3.16423980e-01  7.44308252e-01  1.00000000e+00
  1.00000000e+00  1.00000000e+00  1.00000000e+00  1.00000000e+00  1.83470016e-03
  1.40373012e-02  6.88426061e-02  2.32184421e-01  4.67941342e-01  3.62312032e-01
 -1.19332409e-01 -1.60854212e-01  1.14345648e+00  6.89990956e-02  3.16423980e-01
  7.44308252e-01  1.00000000e+00  1.00000000e+00  1.00000000e+00  1.00000000e+00
  1.00000000e+00  1.83479944e-03  1.39949958e-02  6.85869792e-02  2.32240930e-01
  4.69069858e-01  3.60454891e-01 -1.14961023e-01 -1.69118034e-01  1.14585223e+00
  6.75800232e-02  3.23907111e-01  7.40895255e-01  1.00000000e+00  1.00000000e+00
  1.00000000e+00  1.00000000e+00  1.00000000e+00  1.83470016e-03  1.40373012e-02
  6.88426061e-02  2.32184421e-01  4.67941342e-01  3.62312032e-01 -1.19332409e-01
 -1.60854212e-01  1.14345648e+00  6.89990956e-02  3.16423980e-01  7.44308252e-01
  1.00000000e+00  1.00000000e+00  1.00000000e+00  1.00000000e+00  1.00000000e+00
  1.83470016e-03  1.40373012e-02  6.88426061e-02  2.32184421e-01  4.67941342e-01
  3.62312032e-01 -1.19332409e-01 -1.60854212e-01  1.14345648e+00  6.89990956e-02
  3.16423980e-01  7.44308252e-01  1.00000000e+00  1.00000000e+00  1.00000000e+00
  1.00000000e+00  1.00000000e+00  1.83470016e-03  1.40373012e-02  6.88426061e-02
  2.32184421e-01  4.67941342e-01  3.62312032e-01 -1.19332409e-01 -1.60854212e-01
  1.14345648e+00  6.89990956e-02  3.16423980e-01  7.44308252e-01  1.00000000e+00
  1.00000000e+00  1.00000000e+00  1.00000000e+00  1.00000000e+00  1.83470016e-03
  1.40373012e-02  6.88426061e-02  2.32184421e-01  4.67941342e-01  3.62312032e-01
 -1.19332409e-01 -1.60854212e-01  1.14345648e+00  6.89990956e-02  3.16423980e-01
  7.44308252e-01  1.00000000e+00  1.00000000e+00  1.00000000e+00  1.00000000e+00
  1.00000000e+00  1.83470016e-03  1.40373012e-02  6.88426061e-02  2.32184421e-01
  4.67941342e-01  3.62312032e-01 -1.19332409e-01 -1.60854212e-01  1.14345648e+00
  6.89990956e-02  3.16423980e-01  7.44308252e-01  1.00000000e+00  1.00000000e+00
  1.00000000e+00  1.00000000e+00  1.00000000e+00  3.34945995e-02  2.34726947e-01
  8.13757318e-01  1.00000000e+00  3.34945995e-02  2.34726947e-01  8.13757318e-01
  1.00000000e+00  3.34945995e-02  2.34726947e-01  8.13757318e-01  1.00000000e+00
  1.83300031e-03  1.40340024e-02  6.90970118e-02  2.37452040e-01  4.83034082e-01
  3.39856058e-01 -2.29740199e-03 -3.07140266e-02 -1.12528097e-01  4.50160390e-02
  5.89353510e-01  4.65206403e-01  3.98940055e-03  3.03180042e-02  1.29880018e-01
  3.27951045e-01  4.53527062e-01  2.52154035e-01 -2.51831288e-01  6.15893150e-02
  1.06018542e+00 -1.42990127e-02  3.23572288e-01  7.43507661e-01  1.00000000e+00
  1.00000000e+00  1.00000000e+00  1.00000000e+00  1.00000000e+00  3.34945995e-02
  2.34726947e-01  8.13757318e-01  1.00000000e+00  1.83470016e-03  1.40373012e-02
  6.88426061e-02  2.32184421e-01  4.67941342e-01  3.62312032e-01 -1.19332409e-01
 -1.60854212e-01  1.14345648e+00  6.89990956e-02  3.16423980e-01  7.44308252e-01
  1.00000000e+00  1.00000000e+00  1.00000000e+00  1.00000000e+00  1.00000000e+00
  3.34945995e-02  2.34726947e-01  8.13757318e-01  1.00000000e+00  3.34945995e-02
  2.34726947e-01  8.13757318e-01  1.00000000e+00  3.34945995e-02  2.34726947e-01
  8.13757318e-01  1.00000000e+00  3.34945995e-02  2.34726947e-01  8.13757318e-01
  1.00000000e+00  1.83470016e-03  1.40373012e-02  6.88426061e-02  2.32184421e-01
  4.67941342e-01  3.62312032e-01 -1.19332409e-01 -1.60854212e-01  1.14345648e+00
  6.89990956e-02  3.16423980e-01  7.44308252e-01  1.00000000e+00  1.00000000e+00
  1.00000000e+00  1.00000000e+00  1.00000000e+00  3.34945995e-02  2.34726947e-01
  8.13757318e-01  1.00000000e+00  3.34945995e-02  2.34726947e-01  8.13757318e-01
  1.00000000e+00  3.34945995e-02  2.34726947e-01  8.13757318e-01  1.00000000e+00
  1.83470016e-03  1.40373012e-02  6.88426061e-02  2.32184421e-01  4.67941342e-01
  3.62312032e-01 -1.19332409e-01 -1.60854212e-01  1.14345648e+00  6.89990956e-02
  3.16423980e-01  7.44308252e-01  1.00000000e+00  1.00000000e+00  1.00000000e+00
  1.00000000e+00  1.00000000e+00  1.83109981e-03  1.39500985e-02  6.84450927e-02
  2.32714275e-01  4.70192950e-01  3.58520862e-01 -1.10777504e-01 -1.48026305e-01
  1.13076704e+00  7.08742995e-02  3.39752798e-01  7.27158595e-01  1.00000000e+00
  1.00000000e+00  1.00000000e+00  1.00000000e+00  1.00000000e+00  3.34945995e-02
  2.34726947e-01  8.13757318e-01  1.00000000e+00  3.34945995e-02  2.34726947e-01
  8.13757318e-01  1.00000000e+00  3.34945995e-02  2.34726947e-01  8.13757318e-01
  1.00000000e+00
Coordinates of each shell                  R   N=         426
 -7.42777171e-01  3.24487372e-01 -1.08764950e+00 -7.42777171e-01  3.24487372e-01
 -1.08764950e+00 -7.42777171e-01  3.24487372e-01 -1.08764950e+00 -7.42777171e-01
  3.24487372e-01 -1.08764950e+00 -7.42777171e-01  3.24487372e-01 -1.08764950e+00
 -7.42777171e-01  3.24487372e-01 -1.08764950e+00 -7.42777171e-01  3.24487372e-01
 -1.08764950e+00 -7.42777171e-01  3.24487372e-01 -1.08764950e+00 -3.40227455e+00
  1.08991332e+00 -4.62938733e-01 -3.40227455e+00  1.08991332e+00 -4.62938733e-01
 -3.40227455e+00  1.08991332e+00 -4.62938733e-01 -3.40227455e+00  1.08991332e+00
 -4.62938733e-01 -3.40227455e+00  1.08991332e+00 -4.62938733e-01 -3.40227455e+00
  1.08991332e+00 -4.62938733e-01 -3.40227455e+00  1.08991332e+00 -4.62938733e-01
 -3.40227455e+00  1.08991332e+00 -4.62938733e-01 -4.11085679e+00  2.42198988e+00
  2.03650146e+00 -4.11085679e+00  2.42198988e+00  2.03650146e+00 -4.11085679e+00
  2.42198988e+00  2.03650146e+00 -4.11085679e+00  2.42198988e+00  2.03650146e+00
 -4.11085679e+00  2.42198988e+00  2.03650146e+00 -4.11085679e+00  2.42198988e+00
  2.03650146e+00 -4.11085679e+00  2.42198988e+00  2.03650146e+00 -4.11085679e+00
  2.42198988e+00  2.03650146e+00 -3.08833245e+00  1.17461413e+00  4.28769882e+00
 -3.08833245e+00  1.17461413e+00  4.28769882e+00 -3.08833245e+00  1.17461413e+00
  4.28769882e+00 -3.08833245e+00  1.17461413e+00  4.28769882e+00 -3.08833245e+00
  1.17461413e+00  4.28769882e+00 -3.08833245e+00  1.17461413e+00  4.28769882e+00
 -3.08833245e+00  1.17461413e+00  4.28769882e+00 -3.08833245e+00  1.17461413e+00
  4.28769882e+00  1.29192089e+00  5.04175752e-01  6.11086934e-01  1.29192089e+00
  5.04175752e-01  6.11086934e-01  1.29192089e+00  5.04175752e-01  6.11086934e-01
  1.29192089e+00  5.04175752e-01  6.11086934e-01  1.29192089e+00  5.04175752e-01
  6.11086934e-01  1.29192089e+00  5.04175752e-01  6.11086934e-01  1.29192089e+00
  5.04175752e-01  6.11086934e-01  1.29192089e+00  5.04175752e-01  6.11086934e-01
  3.72435551e+00 -2.06462624e-01 -1.20992496e-01  3.72435551e+00 -2.06462624e-01
 -1.20992496e-01  3.72435551e+00 -2.06462624e-01 -1.20992496e-01  3.72435551e+00
 -2.06462624e-01 -1.20992496e-01  3.72435551e+00 -2.06462624e-01 -1.20992496e-01
  3.72435551e+00 -2.06462624e-01 -1.20992496e-01  3.72435551e+00 -2.06462624e-01
 -1.20992496e-01  3.72435551e+00 -2.06462624e-01 -1.20992496e-01  4.12585825e+00
 -1.10292245e+00 -2.56700989e+00  4.12585825e+00 -1.10292245e+00 -2.56700989e+00
  4.12585825e+00 -1.10292245e+00 -2.56700989e+00  4.12585825e+00 -1.10292245e+00
 -2.56700989e+00  4.12585825e+00 -1.10292245e+00 -2.56700989e+00  4.12585825e+00
 -1.10292245e+00 -2.56700989e+00  4.12585825e+00 -1.10292245e+00 -2.56700989e+00
  4.12585825e+00 -1.10292245e+00 -2.56700989e+00  2.13561957e+00 -1.30688511e+00
 -4.29243739e+00  2.13561957e+00 -1.30688511e+00 -4.29243739e+00  2.13561957e+00
 -1.30688511e+00 -4.29243739e+00  2.13561957e+00 -1.30688511e+00 -4.29243739e+00
  2.13561957e+00 -1.30688511e+00 -4.29243739e+00  2.13561957e+00 -1.30688511e+00
 -4.29243739e+00  2.13561957e+00 -1.30688511e+00 -4.29243739e+00  2.13561957e+00
 -1.30688511e+00 -4.29243739e+00 -2.80408008e-01 -5.93458385e-01 -3.54059356e+00
 -2.80408008e-01 -5.93458385e-01 -3.54059356e+00 -2.80408008e-01 -5.93458385e-01
 -3.54059356e+00 -2.80408008e-01 -5.93458385e-01 -3.54059356e+00 -2.80408008e-01
 -5.93458385e-01 -3.54059356e+00 -2.80408008e-01 -5.93458385e-01 -3.54059356e+00
 -2.80408008e-01 -5.93458385e-01 -3.54059356e+00 -2.80408008e-01 -5.93458385e-01
 -3.54059356e+00  9.49375085e-01  1.14609231e+00  2.52537445e+00  9.49375085e-01
  1.14609231e+00  2.52537445e+00 -1.85352028e+00 -7.30780726e-01 -4.84936200e+00
 -1.85352028e+00 -7.30780726e-01 -4.84936200e+00  5.29063700e+00 -7.36223283e-02
  1.19650743e+00  5.29063700e+00 -7.36223283e-02  1.19650743e+00  7.18298575e+00
 -1.99864163e+00 -3.49609751e+00  7.18298575e+00 -1.99864163e+00 -3.49609751e+00
  7.18298575e+00 -1.99864163e+00 -3.49609751e+00  7.18298575e+00 -1.99864163e+00
 -3.49609751e+00  7.18298575e+00 -1.99864163e+00 -3.49609751e+00  7.18298575e+00
 -1.99864163e+00 -3.49609751e+00  7.18298575e+00 -1.99864163e+00 -3.49609751e+00
  7.18298575e+00 -1.99864163e+00 -3.49609751e+00  7.18298575e+00 -1.99864163e+00
 -3.49609751e+00  7.18298575e+00 -1.99864163e+00 -3.49609751e+00  2.48275473e+00
 -2.00964130e+00 -6.18772320e+00  2.48275473e+00 -2.00964130e+00 -6.18772320e+00
 -3.25491880e+00  5.19922744e+00  1.94498629e+00 -3.25491880e+00  5.19922744e+00
  1.94498629e+00 -3.25491880e+00  5.19922744e+00  1.94498629e+00 -3.25491880e+00
  5.19922744e+00  1.94498629e+00 -3.25491880e+00  5.19922744e+00  1.94498629e+00
 -3.25491880e+00  5.19922744e+00  1.94498629e+00 -3.25491880e+00  5.19922744e+00
  1.94498629e+00 -3.25491880e+00  5.19922744e+00  1.94498629e+00 -6.19624983e+00
  2.38925353e+00  2.02537385e+00 -6.19624983e+00  2.38925353e+00  2.02537385e+00
 -1.19310676e+00  5.36309231e+00  1.91455901e+00 -1.19310676e+00  5.36309231e+00
  1.91455901e+00 -3.96401346e+00  6.21058895e+00  3.61106532e+00 -3.96401346e+00
  6.21058895e+00  3.61106532e+00 -4.01856967e+00  6.13829761e+00  2.67120522e-01
 -4.01856967e+00  6.13829761e+00  2.67120522e-01 -4.22110466e+00 -1.29996116e+00
  4.82847822e+00 -4.22110466e+00 -1.29996116e+00  4.82847822e+00 -4.22110466e+00
 -1.29996116e+00  4.82847822e+00 -4.22110466e+00 -1.29996116e+00  4.82847822e+00
 -4.22110466e+00 -1.29996116e+00  4.82847822e+00 -4.22110466e+00 -1.29996116e+00
  4.82847822e+00 -4.22110466e+00 -1.29996116e+00  4.82847822e+00 -4.22110466e+00
 -1.29996116e+00  4.82847822e+00 -3.35583357e+00  2.33589035e+00  5.80263025e+00
 -3.35583357e+00  2.33589035e+00  5.80263025e+00 -3.73273895e+00 -2.58003185e+00
  3.27143792e+00 -3.73273895e+00 -2.58003185e+00  3.27143792e+00 -6.30830663e+00
 -1.19871872e+00  4.88083759e+00 -6.30830663e+00 -1.19871872e+00  4.88083759e+00
 -3.22450220e+00 -2.37496332e+00  7.31371592e+00 -3.22450220e+00 -2.37496332e+00
  7.31371592e+00 -3.22450220e+00 -2.37496332e+00  7.31371592e+00 -3.22450220e+00
 -2.37496332e+00  7.31371592e+00 -3.22450220e+00 -2.37496332e+00  7.31371592e+00
 -3.22450220e+00 -2.37496332e+00  7.31371592e+00 -3.22450220e+00 -2.37496332e+00
  7.31371592e+00 -3.22450220e+00 -2.37496332e+00  7.31371592e+00 -5.08647922e+00
  7.79878586e-01 -2.02307394e+00 -5.08647922e+00  7.79878586e-01 -2.02307394e+00
 -5.08647922e+00  7.79878586e-01 -2.02307394e+00 -5.08647922e+00  7.79878586e-01
 -2.02307394e+00 -5.08647922e+00  7.79878586e-01 -2.02307394e+00 -5.08647922e+00
  7.79878586e-01 -2.02307394e+00 -5.08647922e+00  7.79878586e-01 -2.02307394e+00
 -5.08647922e+00  7.79878586e-01 -2.02307394e+00 -1.16463483e+00 -2.57676833e+00
  7.25832124e+00 -1.16463483e+00 -2.57676833e+00  7.25832124e+00 -4.05480677e+00
 -4.23513161e+00  7.68626064e+00 -4.05480677e+00 -4.23513161e+00  7.68626064e+00
 -3.70753373e+00 -1.14300727e+00  8.91246481e+00 -3.70753373e+00 -1.14300727e+00
  8.91246481e+00
Total Energy                               R     -1.017791409215590e+03
Alpha Orbital Energies                     R   N=         298
 -1.01563238e+02 -1.91527300e+01 -1.43415875e+01 -1.02871608e+01 -1.02716470e+01
 -1.02351716e+01 -1.02222852e+01 -1.02173540e+01 -1.02171671e+01 -1.02168515e+01
 -1.02146216e+01 -1.02143707e+01 -1.01988757e+01 -1.01900689e+01 -9.47839318e+00
 -7.24241099e+00 -7.23283633e+00 -7.23238575e+00 -1.05072518e+00 -9.25760765e-01
 -9.04334617e-01 -8.51156947e-01 -7.89301273e-01 -7.71193662e-01 -7.57765973e-01
 -7.29805586e-01 -6.64898822e-01 -6.33528734e-01 -6.24279496e-01 -6.20171829e-01
 -5.67338068e-01 -5.13718826e-01 -5.03539702e-01 -4.90791798e-01 -4.81611974e-01
 -4.70158986e-01 -4.55357578e-01 -4.49749713e-01 -4.47021600e-01 -4.38883286e-01
 -4.16966961e-01 -4.15827148e-01 -4.03765648e-01 -3.94503910e-01 -3.86276393e-01
 -3.84317521e-01 -3.74592152e-01 -3.67696288e-01 -3.61687734e-01 -3.51890172e-01
 -3.37800016e-01 -3.24322740e-01 -2.76448263e-01 -2.65077749e-01 -2.60459274e-01
 -2.43095035e-01 -7.47611801e-02 -3.04203189e-02 -5.25775651e-03  4.27658085e-03
  8.55748171e-03  9.33923872e-03  1.82034769e-02  1.94370225e-02  2.83676148e-02
  3.34019417e-02  4.26978297e-02  4.70566481e-02  4.91745803e-02  5.20058446e-02
  6.57133620e-02  6.88361109e-02  7.19375688e-02  7.22734746e-02  7.91060481e-02
  8.54960962e-02  9.12156422e-02  9.16045635e-02  1.00049586e-01  1.01552913e-01
  1.05418856e-01  1.11726588e-01  1.22568901e-01  1.28358286e-01  1.31118051e-01
  1.34505622e-01  1.40204857e-01  1.43474896e-01  1.44895019e-01  1.49076353e-01
  1.54889568e-01  1.65259246e-01  1.67852653e-01  1.73998489e-01  1.75394852e-01
  1.81125364e-01  1.82313569e-01  1.86696649e-01  1.90175011e-01  1.93453611e-01
  2.01541294e-01  2.07177854e-01  2.10777252e-01  2.12876925e-01  2.19092132e-01
  2.22551609e-01  2.27380031e-01  2.29168040e-01  2.32994123e-01  2.37578731e-01
  2.42117330e-01  2.47225809e-01  2.48733004e-01  2.53861789e-01  2.59835761e-01
  2.62689904e-01  2.64416122e-01  2.71700171e-01  2.76861349e-01  2.80929615e-01
  2.86639850e-01  2.95176986e-01  2.99852741e-01  3.08160900e-01  3.22616216e-01
  3.25090346e-01  3.30068029e-01  3.36146763e-01  3.42109375e-01  3.42813515e-01
  3.43455357e-01  3.68841442e-01  3.71559088e-01  3.72968323e-01  3.82731400e-01
  3.92910805e-01  4.14175933e-01  4.29464058e-01  4.36802902e-01  4.55115215e-01
  4.75742628e-01  4.94734476e-01  5.47171338e-01  5.51625737e-01  6.14080875e-01
  6.23033224e-01  6.35582144e-01  6.42400040e-01  6.60611678e-01  6.63654183e-01
  6.71391019e-01  6.74725004e-01  6.80341931e-01  6.92405458e-01  7.01929164e-01
  7.05000649e-01  7.08587108e-01  7.17612325e-01  7.23580437e-01  7.36061000e-01
  7.42624955e-01  7.48641158e-01  7.61334242e-01  7.67348320e-01  7.97609318e-01
  8.06037469e-01  8.11480970e-01  8.13263095e-01  8.28098232e-01  8.48084631e-01
  8.57168233e-01  8.61773882e-01  8.65620395e-01  8.91637477e-01  9.09049901e-01
  9.27202403e-01  9.35805550e-01  9.39316570e-01  9.43870626e-01  9.51317123e-01
  9.53529419e-01  9.61206712e-01  9.78548623e-01  1.00574037e+00  1.01478533e+00
  1.01537498e+00  1.03503338e+00  1.03823946e+00  1.05350394e+00  1.07549977e+00
  1.08066129e+00  1.08997012e+00  1.10435039e+00  1.11057945e+00  1.12773211e+00
  1.13869033e+00  1.14363038e+00  1.16319123e+00  1.16942762e+00  1.18926620e+00