Generated by Psi4
     FORCE                           RHF                       TESTBAS
Number of atoms                            I               28
Charge                                     I                0
Multiplicity                               I                1
Number of electrons                        I              112
Number of alpha electrons                  I               56
Number of beta electrons                   I               56
Number of basis functions                  I              298
Number of independent functions            I              298
Atomic numbers                             I   N=          28
           6           6           6           7           6           6
           6           6           6           1           1           6
           1           6           1           8           1           1
           1           1           1           6           1           1
           1           1           1          17
Nuclear charges                            R   N=          28
  6.00000000e+00  6.00000000e+00  6.00000000e+00  7.00000000e+00  6.00000000e+00
  6.00000000e+00  6.00000000e+00  6.00000000e+00  6.00000000e+00  1.00000000e+00
  1.00000000e+00  6.00000000e+00  1.00000000e+00  6.00000000e+00  1.00000000e+00
  8.00000000e+00  1.00000000e+00  1.00000000e+00  1.00000000e+00  1.00000000e+00
  1.00000000e+00  6.00000000e+00  1.00000000e+00  1.00000000e+00  1.00000000e+00
  1.00000000e+00  1.00000000e+00  1.70000000e+01
Current cartesian coordinates              R   N=          84
 -4.47605352e-01  4.47822615e-01 -1.19867099e+00 -2.71067265e+00  2.14764029e+00
 -1.00394642e+00 -3.17460036e+00  3.89411149e+00  1.28908966e+00 -2.93319850e+00
  2.60709857e+00  3.72963046e+00  1.30835251e+00  8.30164577e-02  7.61305158e-01
  3.39262657e+00 -1.49829001e+00  4.25378219e-01  3.72405180e+00 -2.72305833e+00
 -1.88494436e+00  2.00376881e+00 -2.39911882e+00 -3.86358023e+00 -6.67671648e-02
 -8.19102642e-01 -3.50579170e+00  1.00134207e+00  9.95855066e-01  2.56861097e+00
  4.74122588e+00 -1.78332337e+00  1.94414691e+00 -1.37467949e+00  6.17415613e+00
  1.16783659e+00 -5.11676221e+00  4.58868368e+00  9.80339728e-01 -4.93302035e+00
  7.51700100e-01  4.23733566e+00 -2.93870185e+00  3.93802666e+00  5.12384035e+00
 -4.20664412e+00  2.27995953e+00 -2.76767138e+00  2.29102756e+00 -3.36842889e+00
 -5.64800938e+00 -1.42442205e+00 -5.35290204e-01 -5.01661616e+00  5.97412230e-01
  5.60616308e+00  1.42668325e+00 -1.86059317e+00  7.53558784e+00  2.65504977e+00
 -1.55156005e+00  7.14151167e+00 -6.52397635e-01 -4.68142952e+00 -3.41542199e-01
  6.89568158e+00 -4.76121986e+00 -7.71175597e-01  2.83999781e+00 -6.83587208e+00
  1.57851455e+00  3.98294779e+00 -2.83964111e+00 -1.25294862e+00  7.14854963e+00
 -6.16116272e+00 -1.74700044e+00  7.24704567e+00 -4.87005133e+00  1.13896338e+00
  8.33771654e+00  6.34393191e+00 -4.71358894e+00 -2.31604932e+00
Integer atomic weights                     I   N=          28
          12          12          12          14          12          12
          12          12          12           1           1          12
           1          12           1          15           1           1
           1           1           1          12           1           1
           1           1           1          34
Real atomic weights                        R   N=          28
  1.20000000e+01  1.20000000e+01  1.20000000e+01  1.40030740e+01  1.20000000e+01
  1.20000000e+01  1.20000000e+01  1.20000000e+01  1.20000000e+01  1.00782503e+00
  1.00782503e+00  1.20000000e+01  1.00782503e+00  1.20000000e+01  1.00782503e+00
  1.59949146e+01  1.00782503e+00  1.00782503e+00  1.00782503e+00  1.00782503e+00
  1.00782503e+00  1.20000000e+01  1.00782503e+00  1.00782503e+00  1.00782503e+00
  1.00782503e+00  1.00782503e+00  3.49688527e+01
Number of primitive shells                 I              306
Number of contracted shells                I              142
Pure/Cartesian d shells                    I                1
Pure/Cartesian f shells                    I                1
Highest angular momentum                   I                2
Largest degree of contraction              I                6
Shell types                                I   N=         142
           0           0           1           0           1           2
           0           1           0           0           1           0
           1           2           0           1           0           0
           1           0           1           2           0           1
           0           0           1           0           1           2
           0           1           0           0           1           0
           1           2           0           1           0           0
           1           0           1           2           0           1
           0           0           1           0           1           2
           0           1           0           0           1           0
           1           2           0           1           0           0
           1           0           1           2           0           1
           0           0           0           0           0           0
           1           0           1           2           0           1
           0           0           0           0           1           0
           1           2           0           1           0           0
           0           0           1           0           1           2
           0           1           0           0           0           0
           0           0           0           0           0           0
           0           0           1           0           1           2
           0           1           0           0           0           0
           0           0           0           0           0           0
           0           0           1           0           1           0
           1           2           0           1
Number of primitives per shell             I   N=         142
           6           3           3           1           1           1
           1           1           6           3           3           1
           1           1           1           1           6           3
           3           1           1           1           1           1
           6           3           3           1           1           1
           1           1           6           3           3           1
           1           1           1           1           6           3
           3           1           1           1           1           1
           6           3           3           1           1           1
           1           1           6           3           3           1
           1           1           1           1           6           3
           3           1           1           1           1           1
           3           1           3           1           6           3
           3           1           1           1           1           1
           3           1           6           3           3           1
           1           1           1           1           3           1
           6           3           3           1           1           1
           1           1           3           1           3           1
           3           1           3           1           3           1
           6           3           3           1           1           1
           1           1           3           1           3           1
           3           1           3           1           3           1
           6           6           6           3           3           1
           1           1           1           1
Shell to atom map                          I   N=         142
           1           1           1           1           1           1
           1           1           2           2           2           2
           2           2           2           2           3           3
           3           3           3           3           3           3
           4           4           4           4           4           4
           4           4           5           5           5           5
           5           5           5           5           6           6
           6           6           6           6           6           6
           7           7           7           7           7           7
           7           7           8           8           8           8
           8           8           8           8           9           9
           9           9           9           9           9           9
          10          10          11          11          12          12
          12          12          12          12          12          12
          13          13          14          14          14          14
          14          14          14          14          15          15
          16          16          16          16          16          16
          16          16          17          17          18          18
          19          19          20          20          21          21
          22          22          22          22          22          22
          22          22          23          23          24          24
          25          25          26          26          27          27
          28          28          28          28          28          28
          28          28          28          28
Primitive exponents                        R   N=         306
  3.04752490e+03  4.57369510e+02  1.03948690e+02  2.92101550e+01  9.28666300e+00
  3.16392700e+00  7.86827240e+00  1.88128850e+00  5.44249300e-01  7.86827240e+00
  1.88128850e+00  5.44249300e-01  1.68714400e-01  1.68714400e-01  8.00000000e-01
  4.38000000e-02  4.38000000e-02  3.04752490e+03  4.57369510e+02  1.03948690e+02
  2.92101550e+01  9.28666300e+00  3.16392700e+00  7.86827240e+00  1.88128850e+00
  5.44249300e-01  7.86827240e+00  1.88128850e+00  5.44249300e-01  1.68714400e-01
  1.68714400e-01  8.00000000e-01  4.38000000e-02  4.38000000e-02  3.04752490e+03
  4.57369510e+02  1.03948690e+02  2.92101550e+01  9.28666300e+00  3.16392700e+00
  7.86827240e+00  1.88128850e+00  5.44249300e-01  7.86827240e+00  1.88128850e+00
  5.44249300e-01  1.68714400e-01  1.68714400e-01  8.00000000e-01  4.38000000e-02
  4.38000000e-02  4.17351100e+03  6.27457900e+02  1.42902100e+02  4.02343300e+01
  1.28202100e+01  4.39043700e+00  1.16263580e+01  2.71628000e+00  7.72218000e-01
  1.16263580e+01  2.71628000e+00  7.72218000e-01  2.12031300e-01  2.12031300e-01
  8.00000000e-01  6.39000000e-02  6.39000000e-02  3.04752490e+03  4.57369510e+02
  1.03948690e+02  2.92101550e+01  9.28666300e+00  3.16392700e+00  7.86827240e+00
  1.88128850e+00  5.44249300e-01  7.86827240e+00  1.88128850e+00  5.44249300e-01
  1.68714400e-01  1.68714400e-01  8.00000000e-01  4.38000000e-02  4.38000000e-02
  3.04752490e+03  4.57369510e+02  1.03948690e+02  2.92101550e+01  9.28666300e+00
  3.16392700e+00  7.86827240e+00  1.88128850e+00  5.44249300e-01  7.86827240e+00
  1.88128850e+00  5.44249300e-01  1.68714400e-01  1.68714400e-01  8.00000000e-01
  4.38000000e-02  4.38000000e-02  3.04752490e+03  4.57369510e+02  1.03948690e+02
  2.92101550e+01  9.28666300e+00  3.16392700e+00  7.86827240e+00  1.88128850e+00
  5.44249300e-01  7.86827240e+00  1.88128850e+00  5.44249300e-01  1.68714400e-01
  1.68714400e-01  8.00000000e-01  4.38000000e-02  4.38000000e-02  3.04752490e+03
  4.57369510e+02  1.03948690e+02  2.92101550e+01  9.28666300e+00  3.16392700e+00
  7.86827240e+00  1.88128850e+00  5.44249300e-01  7.86827240e+00  1.88128850e+00
  5.44249300e-01  1.68714400e-01  1.68714400e-01  8.00000000e-01  4.38000000e-02
  4.38000000e-02  3.04752490e+03  4.57369510e+02  1.03948690e+02  2.92101550e+01
  9.28666300e+00  3.16392700e+00  7.86827240e+00  1.88128850e+00  5.44249300e-01
  7.86827240e+00  1.88128850e+00  5.44249300e-01  1.68714400e-01  1.68714400e-01
  8.00000000e-01  4.38000000e-02  4.38000000e-02  1.87311370e+01  2.82539370e+00
  6.40121700e-01  1.61277800e-01  1.87311370e+01  2.82539370e+00  6.40121700e-01
  1.61277800e-01  3.04752490e+03  4.57369510e+02  1.03948690e+02  2.92101550e+01
  9.28666300e+00  3.16392700e+00  7.86827240e+00  1.88128850e+00  5.44249300e-01
  7.86827240e+00  1.88128850e+00  5.44249300e-01  1.68714400e-01  1.68714400e-01
  8.00000000e-01  4.38000000e-02  4.38000000e-02  1.87311370e+01  2.82539370e+00
  6.40121700e-01  1.61277800e-01  3.04752490e+03  4.57369510e+02  1.03948690e+02
  2.92101550e+01  9.28666300e+00  3.16392700e+00  7.86827240e+00  1.88128850e+00
  5.44249300e-01  7.86827240e+00  1.88128850e+00  5.44249300e-01  1.68714400e-01
  1.68714400e-01  8.00000000e-01  4.38000000e-02  4.38000000e-02  1.87311370e+01
  2.82539370e+00  6.40121700e-01  1.61277800e-01  5.48467170e+03  8.25234950e+02
  1.88046960e+02  5.29645000e+01  1.68975700e+01  5.79963530e+00  1.55396160e+01
  3.59993360e+00  1.01376180e+00  1.55396160e+01  3.59993360e+00  1.01376180e+00
  2.70005800e-01  2.70005800e-01  8.00000000e-01  8.45000000e-02  8.45000000e-02
  1.87311370e+01  2.82539370e+00  6.40121700e-01  1.61277800e-01  1.87311370e+01
  2.82539370e+00  6.40121700e-01  1.61277800e-01  1.87311370e+01  2.82539370e+00
  6.40121700e-01  1.61277800e-01  1.87311370e+01  2.82539370e+00  6.40121700e-01
  1.61277800e-01  1.87311370e+01  2.82539370e+00  6.40121700e-01  1.61277800e-01
  3.04752490e+03  4.57369510e+02  1.03948690e+02  2.92101550e+01  9.28666300e+00
  3.16392700e+00  7.86827240e+00  1.88128850e+00  5.44249300e-01  7.86827240e+00
  1.88128850e+00  5.44249300e-01  1.68714400e-01  1.68714400e-01  8.00000000e-01
  4.38000000e-02  4.38000000e-02  1.87311370e+01  2.82539370e+00  6.40121700e-01
  1.61277800e-01  1.87311370e+01  2.82539370e+00  6.40121700e-01  1.61277800e-01
  1.87311370e+01  2.82539370e+00  6.40121700e-01  1.61277800e-01  1.87311370e+01
  2.82539370e+00  6.40121700e-01  1.61277800e-01  1.87311370e+01  2.82539370e+00
  6.40121700e-01  1.61277800e-01  2.51801000e+04  3.78035000e+03  8.60474000e+02
  2.42145000e+02  7.73349000e+01  2.62470000e+01  4.91765000e+02  1.16984000e+02
  3.74153000e+01  1.37834000e+01  5.45215000e+00  2.22588000e+00  4.91765000e+02
  1.16984000e+02  3.74153000e+01  1.37834000e+01  5.45215000e+00  2.22588000e+00
  3.18649000e+00  1.14427000e+00  4.20377000e-01  3.18649000e+00  1.14427000e+00
  4.20377000e-01  1.42657000e-01  1.42657000e-01  7.50000000e-01  4.83000000e-02
  4.83000000e-02
Contraction coefficients                   R   N=         306
  1.83470016e-03  1.40373012e-02  6.88426061e-02  2.32184421e-01  4.67941342e-01
  3.62312032e-01 -1.19332409e-01 -1.60854212e-01  1.14345648e+00  6.89990956e-02
  3.16423980e-01  7.44308252e-01  1.00000000e+00  1.00000000e+00  1.00000000e+00
  1.00000000e+00  1.00000000e+00  1.83470016e-03  1.40373012e-02  6.88426061e-02
  2.32184421e-01  4.67941342e-01  3.62312032e-01 -1.19332409e-01 -1.60854212e-01
  1.14345648e+00  6.89990956e-02  3.16423980e-01  7.44308252e-01  1.00000000e+00
  1.00000000e+00  1.00000000e+00  1.00000000e+00  1.00000000e+00  1.83470016e-03
  1.40373012e-02  6.88426061e-02  2.32184421e-01  4.67941342e-01  3.62312032e-01
 -1.19332409e-01 -1.60854212e-01  1.14345648e+00  6.89990956e-02  3.16423980e-01
  7.44308252e-01  1.00000000e+00  1.00000000e+00  1.00000000e+00  1.00000000e+00
  1.00000000e+00  1.83479944e-03  1.39949958e-02  6.85869792e-02  2.32240930e-01
  4.69069858e-01  3.60454891e-01 -1.14961023e-01 -1.69118034e-01  1.14585223e+00
  6.75800232e-02  3.23907111e-01  7.40895255e-01  1.00000000e+00  1.00000000e+00
  1.00000000e+00  1.00000000e+00  1.00000000e+00  1.83470016e-03  1.40373012e-02
  6.88426061e-02  2.32184421e-01  4.67941342e-01  3.62312032e-01 -1.19332409e-01
 -1.60854212e-01  1.14345648e+00  6.89990956e-02  3.16423980e-01  7.44308252e-01
  1.00000000e+00  1.00000000e+00  1.00000000e+00  1.00000000e+00  1.00000000e+00
  1.83470016e-03  1.40373012e-02  6.88426061e-02  2.32184421e-01  4.67941342e-01
  3.62312032e-01 -1.19332409e-01 -1.60854212e-01  1.14345648e+00  6.89990956e-02
  3.16423980e-01  7.44308252e-01  1.00000000e+00  1.00000000e+00  1.00000000e+00
  1.00000000e+00  1.00000000e+00  1.83470016e-03  1.40373012e-02  6.88426061e-02
  2.32184421e-01  4.67941342e-01  3.62312032e-01 -1.19332409e-01 -1.60854212e-01
  1.14345648e+00  6.89990956e-02  3.16423980e-01  7.44308252e-01  1.00000000e+00
  1.00000000e+00  1.00000000e+00  1.00000000e+00  1.00000000e+00  1.83470016e-03
  1.40373012e-02  6.88426061e-02  2.32184421e-01  4.67941342e-01  3.62312032e-01
 -1.19332409e-01 -1.60854212e-01  1.14345648e+00  6.89990956e-02  3.16423980e-01
  7.44308252e-01  1.00000000e+00  1.00000000e+00  1.00000000e+00  1.00000000e+00
  1.00000000e+00  1.83470016e-03  1.40373012e-02  6.88426061e-02  2.32184421e-01
  4.67941342e-01  3.62312032e-01 -1.19332409e-01 -1.60854212e-01  1.14345648e+00
  6.89990956e-02  3.16423980e-01  7.44308252e-01  1.00000000e+00  1.00000000e+00
  1.00000000e+00  1.00000000e+00  1.00000000e+00  3.34945995e-02  2.34726947e-01
  8.13757318e-01  1.00000000e+00  3.34945995e-02  2.34726947e-01  8.13757318e-01
  1.00000000e+00  1.83470016e-03  1.40373012e-02  6.88426061e-02  2.32184421e-01
  4.67941342e-01  3.62312032e-01 -1.19332409e-01 -1.60854212e-01  1.14345648e+00
  6.89990956e-02  3.16423980e-01  7.44308252e-01  1.00000000e+00  1.00000000e+00
  1.00000000e+00  1.00000000e+00  1.00000000e+00  3.34945995e-02  2.34726947e-01
  8.13757318e-01  1.00000000e+00  1.83470016e-03  1.40373012e-02  6.88426061e-02
  2.32184421e-01  4.67941342e-01  3.62312032e-01 -1.19332409e-01 -1.60854212e-01
  1.14345648e+00  6.89990956e-02  3.16423980e-01  7.44308252e-01  1.00000000e+00
  1.00000000e+00  1.00000000e+00  1.00000000e+00  1.00000000e+00  3.34945995e-02
  2.34726947e-01  8.13757318e-01  1.00000000e+00  1.83109981e-03  1.39500985e-02
  6.84450927e-02  2.32714275e-01  4.70192950e-01  3.58520862e-01 -1.10777504e-01
 -1.48026305e-01  1.13076704e+00  7.08742995e-02  3.39752798e-01  7.27158595e-01
  1.00000000e+00  1.00000000e+00  1.00000000e+00  1.00000000e+00  1.00000000e+00
  3.34945995e-02  2.34726947e-01  8.13757318e-01  1.00000000e+00  3.34945995e-02
  2.34726947e-01  8.13757318e-01  1.00000000e+00  3.34945995e-02  2.34726947e-01
  8.13757318e-01  1.00000000e+00  3.34945995e-02  2.34726947e-01  8.13757318e-01
  1.00000000e+00  3.34945995e-02  2.34726947e-01  8.13757318e-01  1.00000000e+00
  1.83470016e-03  1.40373012e-02  6.88426061e-02  2.32184421e-01  4.67941342e-01
  3.62312032e-01 -1.19332409e-01 -1.60854212e-01  1.14345648e+00  6.89990956e-02
  3.16423980e-01  7.44308252e-01  1.00000000e+00  1.00000000e+00  1.00000000e+00
  1.00000000e+00  1.00000000e+00  3.34945995e-02  2.34726947e-01  8.13757318e-01
  1.00000000e+00  3.34945995e-02  2.34726947e-01  8.13757318e-01  1.00000000e+00
  3.34945995e-02  2.34726947e-01  8.13757318e-01  1.00000000e+00  3.34945995e-02
  2.34726947e-01  8.13757318e-01  1.00000000e+00  3.34945995e-02  2.34726947e-01
  8.13757318e-01  1.00000000e+00  1.83300031e-03  1.40340024e-02  6.90970118e-02
  2.37452040e-01  4.83034082e-01  3.39856058e-01 -2.29740199e-03 -3.07140266e-02
 -1.12528097e-01  4.50160390e-02  5.89353510e-01  4.65206403e-01  3.98940055e-03
  3.03180042e-02  1.29880018e-01  3.27951045e-01  4.53527062e-01  2.52154035e-01
 -2.51831288e-01  6.15893150e-02  1.06018542e+00 -1.42990127e-02  3.23572288e-01
  7.43507661e-01  1.00000000e+00  1.00000000e+00  1.00000000e+00  1.00000000e+00
  1.00000000e+00
Coordinates of each shell                  R   N=         426
 -4.47605352e-01  4.47822615e-01 -1.19867099e+00 -4.47605352e-01  4.47822615e-01
 -1.19867099e+00 -4.47605352e-01  4.47822615e-01 -1.19867099e+00 -4.47605352e-01
  4.47822615e-01 -1.19867099e+00 -4.47605352e-01  4.47822615e-01 -1.19867099e+00
 -4.47605352e-01  4.47822615e-01 -1.19867099e+00 -4.47605352e-01  4.47822615e-01
 -1.19867099e+00 -4.47605352e-01  4.47822615e-01 -1.19867099e+00 -2.71067265e+00
  2.14764029e+00 -1.00394642e+00 -2.71067265e+00  2.14764029e+00 -1.00394642e+00
 -2.71067265e+00  2.14764029e+00 -1.00394642e+00 -2.71067265e+00  2.14764029e+00
 -1.00394642e+00 -2.71067265e+00  2.14764029e+00 -1.00394642e+00 -2.71067265e+00
  2.14764029e+00 -1.00394642e+00 -2.71067265e+00  2.14764029e+00 -1.00394642e+00
 -2.71067265e+00  2.14764029e+00 -1.00394642e+00 -3.17460036e+00  3.89411149e+00
  1.28908966e+00 -3.17460036e+00  3.89411149e+00  1.28908966e+00 -3.17460036e+00
  3.89411149e+00  1.28908966e+00 -3.17460036e+00  3.89411149e+00  1.28908966e+00
 -3.17460036e+00  3.89411149e+00  1.28908966e+00 -3.17460036e+00  3.89411149e+00
  1.28908966e+00 -3.17460036e+00  3.89411149e+00  1.28908966e+00 -3.17460036e+00
  3.89411149e+00  1.28908966e+00 -2.93319850e+00  2.60709857e+00  3.72963046e+00
 -2.93319850e+00  2.60709857e+00  3.72963046e+00 -2.93319850e+00  2.60709857e+00
  3.72963046e+00 -2.93319850e+00  2.60709857e+00  3.72963046e+00 -2.93319850e+00
  2.60709857e+00  3.72963046e+00 -2.93319850e+00  2.60709857e+00  3.72963046e+00
 -2.93319850e+00  2.60709857e+00  3.72963046e+00 -2.93319850e+00  2.60709857e+00
  3.72963046e+00  1.30835251e+00  8.30164577e-02  7.61305158e-01  1.30835251e+00
  8.30164577e-02  7.61305158e-01  1.30835251e+00  8.30164577e-02  7.61305158e-01
  1.30835251e+00  8.30164577e-02  7.61305158e-01  1.30835251e+00  8.30164577e-02
  7.61305158e-01  1.30835251e+00  8.30164577e-02  7.61305158e-01  1.30835251e+00
  8.30164577e-02  7.61305158e-01  1.30835251e+00  8.30164577e-02  7.61305158e-01
  3.39262657e+00 -1.49829001e+00  4.25378219e-01  3.39262657e+00 -1.49829001e+00
  4.25378219e-01  3.39262657e+00 -1.49829001e+00  4.25378219e-01  3.39262657e+00
 -1.49829001e+00  4.25378219e-01  3.39262657e+00 -1.49829001e+00  4.25378219e-01
  3.39262657e+00 -1.49829001e+00  4.25378219e-01  3.39262657e+00 -1.49829001e+00
  4.25378219e-01  3.39262657e+00 -1.49829001e+00  4.25378219e-01  3.72405180e+00
 -2.72305833e+00 -1.88494436e+00  3.72405180e+00 -2.72305833e+00 -1.88494436e+00
  3.72405180e+00 -2.72305833e+00 -1.88494436e+00  3.72405180e+00 -2.72305833e+00
 -1.88494436e+00  3.72405180e+00 -2.72305833e+00 -1.88494436e+00  3.72405180e+00
 -2.72305833e+00 -1.88494436e+00  3.72405180e+00 -2.72305833e+00 -1.88494436e+00
  3.72405180e+00 -2.72305833e+00 -1.88494436e+00  2.00376881e+00 -2.39911882e+00
 -3.86358023e+00  2.00376881e+00 -2.39911882e+00 -3.86358023e+00  2.00376881e+00
 -2.39911882e+00 -3.86358023e+00  2.00376881e+00 -2.39911882e+00 -3.86358023e+00
  2.00376881e+00 -2.39911882e+00 -3.86358023e+00  2.00376881e+00 -2.39911882e+00
 -3.86358023e+00  2.00376881e+00 -2.39911882e+00 -3.86358023e+00  2.00376881e+00
 -2.39911882e+00 -3.86358023e+00 -6.67671648e-02 -8.19102642e-01 -3.50579170e+00
 -6.67671648e-02 -8.19102642e-01 -3.50579170e+00 -6.67671648e-02 -8.19102642e-01
 -3.50579170e+00 -6.67671648e-02 -8.19102642e-01 -3.50579170e+00 -6.67671648e-02
 -8.19102642e-01 -3.50579170e+00 -6.67671648e-02 -8.19102642e-01 -3.50579170e+00
 -6.67671648e-02 -8.19102642e-01 -3.50579170e+00 -6.67671648e-02 -8.19102642e-01
 -3.50579170e+00  1.00134207e+00  9.95855066e-01  2.56861097e+00  1.00134207e+00
  9.95855066e-01  2.56861097e+00  4.74122588e+00 -1.78332337e+00  1.94414691e+00
  4.74122588e+00 -1.78332337e+00  1.94414691e+00 -1.37467949e+00  6.17415613e+00
  1.16783659e+00 -1.37467949e+00  6.17415613e+00  1.16783659e+00 -1.37467949e+00
  6.17415613e+00  1.16783659e+00 -1.37467949e+00  6.17415613e+00  1.16783659e+00
 -1.37467949e+00  6.17415613e+00  1.16783659e+00 -1.37467949e+00  6.17415613e+00
  1.16783659e+00 -1.37467949e+00  6.17415613e+00  1.16783659e+00 -1.37467949e+00
  6.17415613e+00  1.16783659e+00 -5.11676221e+00  4.58868368e+00  9.80339728e-01
 -5.11676221e+00  4.58868368e+00  9.80339728e-01 -4.93302035e+00  7.51700100e-01
  4.23733566e+00 -4.93302035e+00  7.51700100e-01  4.23733566e+00 -4.93302035e+00
  7.51700100e-01  4.23733566e+00 -4.93302035e+00  7.51700100e-01  4.23733566e+00
 -4.93302035e+00  7.51700100e-01  4.23733566e+00 -4.93302035e+00  7.51700100e-01
  4.23733566e+00 -4.93302035e+00  7.51700100e-01  4.23733566e+00 -4.93302035e+00
  7.51700100e-01  4.23733566e+00 -2.93870185e+00  3.93802666e+00  5.12384035e+00
 -2.93870185e+00  3.93802666e+00  5.12384035e+00 -4.20664412e+00  2.27995953e+00
 -2.76767138e+00 -4.20664412e+00  2.27995953e+00 -2.76767138e+00 -4.20664412e+00
  2.27995953e+00 -2.76767138e+00 -4.20664412e+00  2.27995953e+00 -2.76767138e+00
 -4.20664412e+00  2.27995953e+00 -2.76767138e+00 -4.20664412e+00  2.27995953e+00
 -2.76767138e+00 -4.20664412e+00  2.27995953e+00 -2.76767138e+00 -4.20664412e+00
  2.27995953e+00 -2.76767138e+00  2.29102756e+00 -3.36842889e+00 -5.64800938e+00
  2.29102756e+00 -3.36842889e+00 -5.64800938e+00 -1.42442205e+00 -5.35290204e-01
 -5.01661616e+00 -1.42442205e+00 -5.35290204e-01 -5.01661616e+00  5.97412230e-01
  5.60616308e+00  1.42668325e+00  5.97412230e-01  5.60616308e+00  1.42668325e+00
 -1.86059317e+00  7.53558784e+00  2.65504977e+00 -1.86059317e+00  7.53558784e+00
  2.65504977e+00 -1.55156005e+00  7.14151167e+00 -6.52397635e-01 -1.55156005e+00
  7.14151167e+00 -6.52397635e-01 -4.68142952e+00 -3.41542199e-01  6.89568158e+00
 -4.68142952e+00 -3.41542199e-01  6.89568158e+00 -4.68142952e+00 -3.41542199e-01
  6.89568158e+00 -4.68142952e+00 -3.41542199e-01  6.89568158e+00 -4.68142952e+00
 -3.41542199e-01  6.89568158e+00 -4.68142952e+00 -3.41542199e-01  6.89568158e+00
 -4.68142952e+00 -3.41542199e-01  6.89568158e+00 -4.68142952e+00 -3.41542199e-01
  6.89568158e+00 -4.76121986e+00 -7.71175597e-01  2.83999781e+00 -4.76121986e+00
 -7.71175597e-01  2.83999781e+00 -6.83587208e+00  1.57851455e+00  3.98294779e+00
 -6.83587208e+00  1.57851455e+00  3.98294779e+00 -2.83964111e+00 -1.25294862e+00
  7.14854963e+00 -2.83964111e+00 -1.25294862e+00  7.14854963e+00 -6.16116272e+00
 -1.74700044e+00  7.24704567e+00 -6.16116272e+00 -1.74700044e+00  7.24704567e+00
 -4.87005133e+00  1.13896338e+00  8.33771654e+00 -4.87005133e+00  1.13896338e+00
  8.33771654e+00  6.34393191e+00 -4.71358894e+00 -2.31604932e+00  6.34393191e+00
 -4.71358894e+00 -2.31604932e+00  6.34393191e+00 -4.71358894e+00 -2.31604932e+00
  6.34393191e+00 -4.71358894e+00 -2.31604932e+00  6.34393191e+00 -4.71358894e+00
 -2.31604932e+00  6.34393191e+00 -4.71358894e+00 -2.31604932e+00  6.34393191e+00
 -4.71358894e+00 -2.31604932e+00  6.34393191e+00 -4.71358894e+00 -2.31604932e+00
  6.34393191e+00 -4.71358894e+00 -2.31604932e+00  6.34393191e+00 -4.71358894e+00
 -2.31604932e+00
Total Energy                               R     -1.017791410212927e+03
Alpha Orbital Energies                     R   N=         298
 -1.01563231e+02 -1.91527449e+01 -1.43415932e+01 -1.02871550e+01 -1.02716405e+01
 -1.02351548e+01 -1.02222584e+01 -1.02173518e+01 -1.02171681e+01 -1.02168494e+01
 -1.02146257e+01 -1.02143798e+01 -1.01988700e+01 -1.01900480e+01 -9.47838693e+00
 -7.24240452e+00 -7.23282987e+00 -7.23237943e+00 -1.05076998e+00 -9.25733053e-01
 -9.04341318e-01 -8.51161744e-01 -7.89299046e-01 -7.71202615e-01 -7.57771486e-01
 -7.29798287e-01 -6.64906951e-01 -6.33541617e-01 -6.24260926e-01 -6.20179482e-01
 -5.67349179e-01 -5.13697200e-01 -5.03548704e-01 -4.90783433e-01 -4.81606583e-01
 -4.70154245e-01 -4.55368412e-01 -4.49744714e-01 -4.47050745e-01 -4.38890881e-01
 -4.16935121e-01 -4.15829261e-01 -4.03768820e-01 -3.94508084e-01 -3.86291922e-01
 -3.84329862e-01 -3.74575010e-01 -3.67709098e-01 -3.61677139e-01 -3.51874493e-01
 -3.37813091e-01 -3.24320849e-01 -2.76450968e-01 -2.65085206e-01 -2.60456081e-01
 -2.43118649e-01 -7.47497543e-02 -3.04263941e-02 -5.25386372e-03  4.27964384e-03
  8.56313497e-03  9.32331026e-03  1.82185110e-02  1.94324640e-02  2.83758823e-02
  3.34017860e-02  4.26990295e-02  4.70641205e-02  4.91732860e-02  5.19939431e-02
  6.57165119e-02  6.88515836e-02  7.19395547e-02  7.22752558e-02  7.91033319e-02
  8.55072582e-02  9.12189663e-02  9.16165515e-02  1.00051677e-01  1.01549231e-01
  1.05436381e-01  1.11725805e-01  1.22564058e-01  1.28364781e-01  1.31136601e-01
  1.34495719e-01  1.40222281e-01  1.43480422e-01  1.44901038e-01  1.49034217e-01
  1.54906677e-01  1.65245029e-01  1.67876575e-01  1.73984718e-01  1.75398792e-01
  1.81147542e-01  1.82331316e-01  1.86675398e-01  1.90175035e-01  1.93465221e-01
  2.01547417e-01  2.07166138e-01  2.10749761e-01  2.12882328e-01  2.19099471e-01
  2.22531495e-01  2.27374305e-01  2.29202605e-01  2.33014221e-01  2.37543817e-01
  2.42160330e-01  2.47221582e-01  2.48725868e-01  2.53846337e-01  2.59847901e-01
  2.62697423e-01  2.64459019e-01  2.71685769e-01  2.76864982e-01  2.80931742e-01
  2.86655892e-01  2.95212257e-01  2.99829023e-01  3.08147631e-01  3.22671355e-01
  3.25085648e-01  3.30029982e-01  3.36180019e-01  3.42256144e-01  3.42861546e-01
  3.43478176e-01  3.68839616e-01  3.71532201e-01  3.73010452e-01  3.82719360e-01
  3.92883905e-01  4.14177331e-01  4.29541188e-01  4.36823894e-01  4.55058127e-01
  4.75781347e-01  4.94824352e-01  5.47178159e-01  5.51786555e-01  6.14084710e-01
  6.23033785e-01  6.35568572e-01  6.42407247e-01  6.60639987e-01  6.63683725e-01
  6.71399571e-01  6.74746760e-01  6.80406115e-01  6.92406455e-01  7.01874607e-01
  7.05061855e-01  7.08514500e-01  7.17529446e-01  7.23485129e-01  7.35996245e-01
  7.42695182e-01  7.48569543e-01  7.61300204e-01  7.67200362e-01  7.97619575e-01
  8.06051105e-01  8.11575192e-01  8.13269718e-01  8.28117427e-01  8.48049607e-01
  8.57216492e-01  8.61769504e-01  8.65581909e-01  8.91717344e-01  9.09087443e-01
  9.27174288e-01  9.35818712e-01  9.39322994e-01  9.43907336e-01  9.51273514e-01
  9.53495826e-01  9.61208185e-01  9.78585560e-01  1.00570820e+00  1.01480109e+00
  1.01534709e+00  1.03503277e+00  1.03822399e+00  1.05355137e+00  1.07547969e+00
  1.08065715e+00  1.08995802e+00  1.10435673e+00  1.11052652e+00  1.12770003e+00
  1.13861066e+00  1.14362160e+00  1.16322315e+00  1.16944475e+00  1.18931077e+00