Generated by Psi4
     FORCE                           RHF                       TESTBAS
Number of atoms                            I               40
Charge                                     I                0
Multiplicity                               I                1
Number of electrons                        I              126
Number of alpha electrons                  I               63
Number of beta electrons                   I               63
Number of basis functions                  I              369
Number of independent functions            I              369
Atomic numbers                             I   N=          40
           6           6           6           6           6           6
           6           6           6           6           6           6
           1           1           1           1           1           1
           1           1           6           1           1           1
           1           1           1           6           1           7
           6           1           6           1           1           1
           1           1           1           1
Nuclear charges                            R   N=          40
  6.00000000e+00  6.00000000e+00  6.00000000e+00  6.00000000e+00  6.00000000e+00
  6.00000000e+00  6.00000000e+00  6.00000000e+00  6.00000000e+00  6.00000000e+00
  6.00000000e+00  6.00000000e+00  1.00000000e+00  1.00000000e+00  1.00000000e+00
  1.00000000e+00  1.00000000e+00  1.00000000e+00  1.00000000e+00  1.00000000e+00
  6.00000000e+00  1.00000000e+00  1.00000000e+00  1.00000000e+00  1.00000000e+00
  1.00000000e+00  1.00000000e+00  6.00000000e+00  1.00000000e+00  7.00000000e+00
  6.00000000e+00  1.00000000e+00  6.00000000e+00  1.00000000e+00  1.00000000e+00
  1.00000000e+00  1.00000000e+00  1.00000000e+00  1.00000000e+00  1.00000000e+00
Current cartesian coordinates              R   N=         120
 -4.42414880e+00 -7.68127083e-01  4.20370596e+00 -2.21608464e+00  2.94624829e-01
  5.85919638e+00  1.62648883e-01 -4.17991361e-01  4.31368239e+00  2.09027978e-01
  1.26514633e+00  1.89957809e+00  4.73123945e+00 -1.62284364e-01  7.85512987e-01
  2.78439248e+00  1.63730110e+00  6.77894106e-01  7.06668501e+00  2.76194531e-01
 -3.70317735e-01  7.51304539e+00  2.53060697e+00 -1.66902224e+00 -3.02452016e+00
 -2.04772803e+00  1.97405443e+00 -1.95612091e+00  2.49187670e-02  1.83279081e-01
  3.27556074e+00  3.90113420e+00 -6.22172230e-01  5.60074584e+00  4.34860238e+00
 -1.78804525e+00  8.54102154e+00 -1.15044334e+00 -2.48062942e-01  9.32971253e+00
  2.87168401e+00 -2.56537261e+00  4.44301928e+00 -1.92758628e+00  1.79114477e+00
  5.92084955e+00  6.12173133e+00 -2.77637668e+00  1.80654204e+00  5.33810033e+00
 -7.17376618e-01 -2.17095656e+00 -6.19453287e-01  7.71872403e+00 -2.35857125e+00
  2.33592114e+00  6.18183190e+00 -4.40515408e-01  3.16441742e+00  2.41504782e+00
 -6.14280212e-01 -3.03545421e+00  3.28165845e+00  1.91440649e+00 -3.35730266e-01
  5.40908164e+00 -1.00495066e+00 -4.41390135e+00  4.78126041e+00  7.44861966e-01
 -3.86977166e+00  1.96344481e+00 -4.15567245e+00 -3.47510207e+00  9.97351784e-01
 -5.54968485e+00 -2.15265773e+00  5.25737873e+00 -5.72259634e+00  7.11221442e-01
  3.55689907e+00 -1.12165724e+00 -9.67023189e-01 -2.43022556e+00 -3.39751024e+00
  1.46497370e+00 -1.96491042e-01 -3.11338535e+00 -7.29518470e-01 -4.35183712e+00
 -5.18443401e+00 -2.55547917e+00 -4.20650052e+00 -4.48615851e+00 -4.52112988e+00
 -4.00715914e+00 -6.89081581e+00 -2.36389415e+00 -6.52809528e+00 -6.30027125e+00
 -2.14852939e+00 -2.50884362e+00 -4.37946959e-01 -2.93850579e+00 -2.25842232e+00
  4.72605047e-01  1.52295965e-01 -3.11869913e+00 -5.84848269e+00 -2.81524852e+00
 -8.26532627e+00 -7.65290815e+00 -4.47958247e-01 -6.71815907e+00 -8.47497533e+00
 -3.69111423e+00 -6.38702000e+00 -2.29799711e+00 -8.60931856e-01 -6.09068056e+00
Integer atomic weights                     I   N=          40
          12          12          12          12          12          12
          12          12          12          12          12          12
           1           1           1           1           1           1
           1           1          12           1           1           1
           1           1           1          12           1          14
          12           1          12           1           1           1
           1           1           1           1
Real atomic weights                        R   N=          40
  1.20000000e+01  1.20000000e+01  1.20000000e+01  1.20000000e+01  1.20000000e+01
  1.20000000e+01  1.20000000e+01  1.20000000e+01  1.20000000e+01  1.20000000e+01
  1.20000000e+01  1.20000000e+01  1.00782503e+00  1.00782503e+00  1.00782503e+00
  1.00782503e+00  1.00782503e+00  1.00782503e+00  1.00782503e+00  1.00782503e+00
  1.20000000e+01  1.00782503e+00  1.00782503e+00  1.00782503e+00  1.00782503e+00
  1.00782503e+00  1.00782503e+00  1.20000000e+01  1.00782503e+00  1.40030740e+01
  1.20000000e+01  1.00782503e+00  1.20000000e+01  1.00782503e+00  1.00782503e+00
  1.00782503e+00  1.00782503e+00  1.00782503e+00  1.00782503e+00  1.00782503e+00
Number of primitive shells                 I              381
Number of contracted shells                I              182
Pure/Cartesian d shells                    I                1
Pure/Cartesian f shells                    I                1
Highest angular momentum                   I                2
Largest degree of contraction              I                6
Shell types                                I   N=         182
           0           0           1           0           1           2
           0           1           0           0           1           0
           1           2           0           1           0           0
           1           0           1           2           0           1
           0           0           1           0           1           2
           0           1           0           0           1           0
           1           2           0           1           0           0
           1           0           1           2           0           1
           0           0           1           0           1           2
           0           1           0           0           1           0
           1           2           0           1           0           0
           1           0           1           2           0           1
           0           0           1           0           1           2
           0           1           0           0           1           0
           1           2           0           1           0           0
           1           0           1           2           0           1
           0           0           0           0           0           0
           0           0           0           0           0           0
           0           0           0           0           0           0
           1           0           1           2           0           1
           0           0           0           0           0           0
           0           0           0           0           0           0
           0           0           1           0           1           2
           0           1           0           0           0           0
           1           0           1           2           0           1
           0           0           1           0           1           2
           0           1           0           0           0           0
           1           0           1           2           0           1
           0           0           0           0           0           0
           0           0           0           0           0           0
           0           0
Number of primitives per shell             I   N=         182
           6           3           3           1           1           1
           1           1           6           3           3           1
           1           1           1           1           6           3
           3           1           1           1           1           1
           6           3           3           1           1           1
           1           1           6           3           3           1
           1           1           1           1           6           3
           3           1           1           1           1           1
           6           3           3           1           1           1
           1           1           6           3           3           1
           1           1           1           1           6           3
           3           1           1           1           1           1
           6           3           3           1           1           1
           1           1           6           3           3           1
           1           1           1           1           6           3
           3           1           1           1           1           1
           3           1           3           1           3           1
           3           1           3           1           3           1
           3           1           3           1           6           3
           3           1           1           1           1           1
           3           1           3           1           3           1
           3           1           3           1           3           1
           6           3           3           1           1           1
           1           1           3           1           6           3
           3           1           1           1           1           1
           6           3           3           1           1           1
           1           1           3           1           6           3
           3           1           1           1           1           1
           3           1           3           1           3           1
           3           1           3           1           3           1
           3           1
Shell to atom map                          I   N=         182
           1           1           1           1           1           1
           1           1           2           2           2           2
           2           2           2           2           3           3
           3           3           3           3           3           3
           4           4           4           4           4           4
           4           4           5           5           5           5
           5           5           5           5           6           6
           6           6           6           6           6           6
           7           7           7           7           7           7
           7           7           8           8           8           8
           8           8           8           8           9           9
           9           9           9           9           9           9
          10          10          10          10          10          10
          10          10          11          11          11          11
          11          11          11          11          12          12
          12          12          12          12          12          12
          13          13          14          14          15          15
          16          16          17          17          18          18
          19          19          20          20          21          21
          21          21          21          21          21          21
          22          22          23          23          24          24
          25          25          26          26          27          27
          28          28          28          28          28          28
          28          28          29          29          30          30
          30          30          30          30          30          30
          31          31          31          31          31          31
          31          31          32          32          33          33
          33          33          33          33          33          33
          34          34          35          35          36          36
          37          37          38          38          39          39
          40          40
Primitive exponents                        R   N=         381
  3.04752490e+03  4.57369510e+02  1.03948690e+02  2.92101550e+01  9.28666300e+00
  3.16392700e+00  7.86827240e+00  1.88128850e+00  5.44249300e-01  7.86827240e+00
  1.88128850e+00  5.44249300e-01  1.68714400e-01  1.68714400e-01  8.00000000e-01
  4.38000000e-02  4.38000000e-02  3.04752490e+03  4.57369510e+02  1.03948690e+02
  2.92101550e+01  9.28666300e+00  3.16392700e+00  7.86827240e+00  1.88128850e+00
  5.44249300e-01  7.86827240e+00  1.88128850e+00  5.44249300e-01  1.68714400e-01
  1.68714400e-01  8.00000000e-01  4.38000000e-02  4.38000000e-02  3.04752490e+03
  4.57369510e+02  1.03948690e+02  2.92101550e+01  9.28666300e+00  3.16392700e+00
  7.86827240e+00  1.88128850e+00  5.44249300e-01  7.86827240e+00  1.88128850e+00
  5.44249300e-01  1.68714400e-01  1.68714400e-01  8.00000000e-01  4.38000000e-02
  4.38000000e-02  3.04752490e+03  4.57369510e+02  1.03948690e+02  2.92101550e+01
  9.28666300e+00  3.16392700e+00  7.86827240e+00  1.88128850e+00  5.44249300e-01
  7.86827240e+00  1.88128850e+00  5.44249300e-01  1.68714400e-01  1.68714400e-01
  8.00000000e-01  4.38000000e-02  4.38000000e-02  3.04752490e+03  4.57369510e+02
  1.03948690e+02  2.92101550e+01  9.28666300e+00  3.16392700e+00  7.86827240e+00
  1.88128850e+00  5.44249300e-01  7.86827240e+00  1.88128850e+00  5.44249300e-01
  1.68714400e-01  1.68714400e-01  8.00000000e-01  4.38000000e-02  4.38000000e-02
  3.04752490e+03  4.57369510e+02  1.03948690e+02  2.92101550e+01  9.28666300e+00
  3.16392700e+00  7.86827240e+00  1.88128850e+00  5.44249300e-01  7.86827240e+00
  1.88128850e+00  5.44249300e-01  1.68714400e-01  1.68714400e-01  8.00000000e-01
  4.38000000e-02  4.38000000e-02  3.04752490e+03  4.57369510e+02  1.03948690e+02
  2.92101550e+01  9.28666300e+00  3.16392700e+00  7.86827240e+00  1.88128850e+00
  5.44249300e-01  7.86827240e+00  1.88128850e+00  5.44249300e-01  1.68714400e-01
  1.68714400e-01  8.00000000e-01  4.38000000e-02  4.38000000e-02  3.04752490e+03
  4.57369510e+02  1.03948690e+02  2.92101550e+01  9.28666300e+00  3.16392700e+00
  7.86827240e+00  1.88128850e+00  5.44249300e-01  7.86827240e+00  1.88128850e+00
  5.44249300e-01  1.68714400e-01  1.68714400e-01  8.00000000e-01  4.38000000e-02
  4.38000000e-02  3.04752490e+03  4.57369510e+02  1.03948690e+02  2.92101550e+01
  9.28666300e+00  3.16392700e+00  7.86827240e+00  1.88128850e+00  5.44249300e-01
  7.86827240e+00  1.88128850e+00  5.44249300e-01  1.68714400e-01  1.68714400e-01
  8.00000000e-01  4.38000000e-02  4.38000000e-02  3.04752490e+03  4.57369510e+02
  1.03948690e+02  2.92101550e+01  9.28666300e+00  3.16392700e+00  7.86827240e+00
  1.88128850e+00  5.44249300e-01  7.86827240e+00  1.88128850e+00  5.44249300e-01
  1.68714400e-01  1.68714400e-01  8.00000000e-01  4.38000000e-02  4.38000000e-02
  3.04752490e+03  4.57369510e+02  1.03948690e+02  2.92101550e+01  9.28666300e+00
  3.16392700e+00  7.86827240e+00  1.88128850e+00  5.44249300e-01  7.86827240e+00
  1.88128850e+00  5.44249300e-01  1.68714400e-01  1.68714400e-01  8.00000000e-01
  4.38000000e-02  4.38000000e-02  3.04752490e+03  4.57369510e+02  1.03948690e+02
  2.92101550e+01  9.28666300e+00  3.16392700e+00  7.86827240e+00  1.88128850e+00
  5.44249300e-01  7.86827240e+00  1.88128850e+00  5.44249300e-01  1.68714400e-01
  1.68714400e-01  8.00000000e-01  4.38000000e-02  4.38000000e-02  1.87311370e+01
  2.82539370e+00  6.40121700e-01  1.61277800e-01  1.87311370e+01  2.82539370e+00
  6.40121700e-01  1.61277800e-01  1.87311370e+01  2.82539370e+00  6.40121700e-01
  1.61277800e-01  1.87311370e+01  2.82539370e+00  6.40121700e-01  1.61277800e-01
  1.87311370e+01  2.82539370e+00  6.40121700e-01  1.61277800e-01  1.87311370e+01
  2.82539370e+00  6.40121700e-01  1.61277800e-01  1.87311370e+01  2.82539370e+00
  6.40121700e-01  1.61277800e-01  1.87311370e+01  2.82539370e+00  6.40121700e-01
  1.61277800e-01  3.04752490e+03  4.57369510e+02  1.03948690e+02  2.92101550e+01
  9.28666300e+00  3.16392700e+00  7.86827240e+00  1.88128850e+00  5.44249300e-01
  7.86827240e+00  1.88128850e+00  5.44249300e-01  1.68714400e-01  1.68714400e-01
  8.00000000e-01  4.38000000e-02  4.38000000e-02  1.87311370e+01  2.82539370e+00
  6.40121700e-01  1.61277800e-01  1.87311370e+01  2.82539370e+00  6.40121700e-01
  1.61277800e-01  1.87311370e+01  2.82539370e+00  6.40121700e-01  1.61277800e-01
  1.87311370e+01  2.82539370e+00  6.40121700e-01  1.61277800e-01  1.87311370e+01
  2.82539370e+00  6.40121700e-01  1.61277800e-01  1.87311370e+01  2.82539370e+00
  6.40121700e-01  1.61277800e-01  3.04752490e+03  4.57369510e+02  1.03948690e+02
  2.92101550e+01  9.28666300e+00  3.16392700e+00  7.86827240e+00  1.88128850e+00
  5.44249300e-01  7.86827240e+00  1.88128850e+00  5.44249300e-01  1.68714400e-01
  1.68714400e-01  8.00000000e-01  4.38000000e-02  4.38000000e-02  1.87311370e+01
  2.82539370e+00  6.40121700e-01  1.61277800e-01  4.17351100e+03  6.27457900e+02
  1.42902100e+02  4.02343300e+01  1.28202100e+01  4.39043700e+00  1.16263580e+01
  2.71628000e+00  7.72218000e-01  1.16263580e+01  2.71628000e+00  7.72218000e-01
  2.12031300e-01  2.12031300e-01  8.00000000e-01  6.39000000e-02  6.39000000e-02
  3.04752490e+03  4.57369510e+02  1.03948690e+02  2.92101550e+01  9.28666300e+00
  3.16392700e+00  7.86827240e+00  1.88128850e+00  5.44249300e-01  7.86827240e+00
  1.88128850e+00  5.44249300e-01  1.68714400e-01  1.68714400e-01  8.00000000e-01
  4.38000000e-02  4.38000000e-02  1.87311370e+01  2.82539370e+00  6.40121700e-01
  1.61277800e-01  3.04752490e+03  4.57369510e+02  1.03948690e+02  2.92101550e+01
  9.28666300e+00  3.16392700e+00  7.86827240e+00  1.88128850e+00  5.44249300e-01
  7.86827240e+00  1.88128850e+00  5.44249300e-01  1.68714400e-01  1.68714400e-01
  8.00000000e-01  4.38000000e-02  4.38000000e-02  1.87311370e+01  2.82539370e+00
  6.40121700e-01  1.61277800e-01  1.87311370e+01  2.82539370e+00  6.40121700e-01
  1.61277800e-01  1.87311370e+01  2.82539370e+00  6.40121700e-01  1.61277800e-01
  1.87311370e+01  2.82539370e+00  6.40121700e-01  1.61277800e-01  1.87311370e+01
  2.82539370e+00  6.40121700e-01  1.61277800e-01  1.87311370e+01  2.82539370e+00
  6.40121700e-01  1.61277800e-01  1.87311370e+01  2.82539370e+00  6.40121700e-01
  1.61277800e-01
Contraction coefficients                   R   N=         381
  1.83470016e-03  1.40373012e-02  6.88426061e-02  2.32184421e-01  4.67941342e-01
  3.62312032e-01 -1.19332409e-01 -1.60854212e-01  1.14345648e+00  6.89990956e-02
  3.16423980e-01  7.44308252e-01  1.00000000e+00  1.00000000e+00  1.00000000e+00
  1.00000000e+00  1.00000000e+00  1.83470016e-03  1.40373012e-02  6.88426061e-02
  2.32184421e-01  4.67941342e-01  3.62312032e-01 -1.19332409e-01 -1.60854212e-01
  1.14345648e+00  6.89990956e-02  3.16423980e-01  7.44308252e-01  1.00000000e+00
  1.00000000e+00  1.00000000e+00  1.00000000e+00  1.00000000e+00  1.83470016e-03
  1.40373012e-02  6.88426061e-02  2.32184421e-01  4.67941342e-01  3.62312032e-01
 -1.19332409e-01 -1.60854212e-01  1.14345648e+00  6.89990956e-02  3.16423980e-01
  7.44308252e-01  1.00000000e+00  1.00000000e+00  1.00000000e+00  1.00000000e+00
  1.00000000e+00  1.83470016e-03  1.40373012e-02  6.88426061e-02  2.32184421e-01
  4.67941342e-01  3.62312032e-01 -1.19332409e-01 -1.60854212e-01  1.14345648e+00
  6.89990956e-02  3.16423980e-01  7.44308252e-01  1.00000000e+00  1.00000000e+00
  1.00000000e+00  1.00000000e+00  1.00000000e+00  1.83470016e-03  1.40373012e-02
  6.88426061e-02  2.32184421e-01  4.67941342e-01  3.62312032e-01 -1.19332409e-01
 -1.60854212e-01  1.14345648e+00  6.89990956e-02  3.16423980e-01  7.44308252e-01
  1.00000000e+00  1.00000000e+00  1.00000000e+00  1.00000000e+00  1.00000000e+00
  1.83470016e-03  1.40373012e-02  6.88426061e-02  2.32184421e-01  4.67941342e-01
  3.62312032e-01 -1.19332409e-01 -1.60854212e-01  1.14345648e+00  6.89990956e-02
  3.16423980e-01  7.44308252e-01  1.00000000e+00  1.00000000e+00  1.00000000e+00
  1.00000000e+00  1.00000000e+00  1.83470016e-03  1.40373012e-02  6.88426061e-02
  2.32184421e-01  4.67941342e-01  3.62312032e-01 -1.19332409e-01 -1.60854212e-01
  1.14345648e+00  6.89990956e-02  3.16423980e-01  7.44308252e-01  1.00000000e+00
  1.00000000e+00  1.00000000e+00  1.00000000e+00  1.00000000e+00  1.83470016e-03
  1.40373012e-02  6.88426061e-02  2.32184421e-01  4.67941342e-01  3.62312032e-01
 -1.19332409e-01 -1.60854212e-01  1.14345648e+00  6.89990956e-02  3.16423980e-01
  7.44308252e-01  1.00000000e+00  1.00000000e+00  1.00000000e+00  1.00000000e+00
  1.00000000e+00  1.83470016e-03  1.40373012e-02  6.88426061e-02  2.32184421e-01
  4.67941342e-01  3.62312032e-01 -1.19332409e-01 -1.60854212e-01  1.14345648e+00
  6.89990956e-02  3.16423980e-01  7.44308252e-01  1.00000000e+00  1.00000000e+00
  1.00000000e+00  1.00000000e+00  1.00000000e+00  1.83470016e-03  1.40373012e-02
  6.88426061e-02  2.32184421e-01  4.67941342e-01  3.62312032e-01 -1.19332409e-01
 -1.60854212e-01  1.14345648e+00  6.89990956e-02  3.16423980e-01  7.44308252e-01
  1.00000000e+00  1.00000000e+00  1.00000000e+00  1.00000000e+00  1.00000000e+00
  1.83470016e-03  1.40373012e-02  6.88426061e-02  2.32184421e-01  4.67941342e-01
  3.62312032e-01 -1.19332409e-01 -1.60854212e-01  1.14345648e+00  6.89990956e-02
  3.16423980e-01  7.44308252e-01  1.00000000e+00  1.00000000e+00  1.00000000e+00
  1.00000000e+00  1.00000000e+00  1.83470016e-03  1.40373012e-02  6.88426061e-02
  2.32184421e-01  4.67941342e-01  3.62312032e-01 -1.19332409e-01 -1.60854212e-01
  1.14345648e+00  6.89990956e-02  3.16423980e-01  7.44308252e-01  1.00000000e+00
  1.00000000e+00  1.00000000e+00  1.00000000e+00  1.00000000e+00  3.34945995e-02
  2.34726947e-01  8.13757318e-01  1.00000000e+00  3.34945995e-02  2.34726947e-01
  8.13757318e-01  1.00000000e+00  3.34945995e-02  2.34726947e-01  8.13757318e-01
  1.00000000e+00  3.34945995e-02  2.34726947e-01  8.13757318e-01  1.00000000e+00
  3.34945995e-02  2.34726947e-01  8.13757318e-01  1.00000000e+00  3.34945995e-02
  2.34726947e-01  8.13757318e-01  1.00000000e+00  3.34945995e-02  2.34726947e-01
  8.13757318e-01  1.00000000e+00  3.34945995e-02  2.34726947e-01  8.13757318e-01
  1.00000000e+00  1.83470016e-03  1.40373012e-02  6.88426061e-02  2.32184421e-01
  4.67941342e-01  3.62312032e-01 -1.19332409e-01 -1.60854212e-01  1.14345648e+00
  6.89990956e-02  3.16423980e-01  7.44308252e-01  1.00000000e+00  1.00000000e+00
  1.00000000e+00  1.00000000e+00  1.00000000e+00  3.34945995e-02  2.34726947e-01
  8.13757318e-01  1.00000000e+00  3.34945995e-02  2.34726947e-01  8.13757318e-01
  1.00000000e+00  3.34945995e-02  2.34726947e-01  8.13757318e-01  1.00000000e+00
  3.34945995e-02  2.34726947e-01  8.13757318e-01  1.00000000e+00  3.34945995e-02
  2.34726947e-01  8.13757318e-01  1.00000000e+00  3.34945995e-02  2.34726947e-01
  8.13757318e-01  1.00000000e+00  1.83470016e-03  1.40373012e-02  6.88426061e-02
  2.32184421e-01  4.67941342e-01  3.62312032e-01 -1.19332409e-01 -1.60854212e-01
  1.14345648e+00  6.89990956e-02  3.16423980e-01  7.44308252e-01  1.00000000e+00
  1.00000000e+00  1.00000000e+00  1.00000000e+00  1.00000000e+00  3.34945995e-02
  2.34726947e-01  8.13757318e-01  1.00000000e+00  1.83479944e-03  1.39949958e-02
  6.85869792e-02  2.32240930e-01  4.69069858e-01  3.60454891e-01 -1.14961023e-01
 -1.69118034e-01  1.14585223e+00  6.75800232e-02  3.23907111e-01  7.40895255e-01
  1.00000000e+00  1.00000000e+00  1.00000000e+00  1.00000000e+00  1.00000000e+00
  1.83470016e-03  1.40373012e-02  6.88426061e-02  2.32184421e-01  4.67941342e-01
  3.62312032e-01 -1.19332409e-01 -1.60854212e-01  1.14345648e+00  6.89990956e-02
  3.16423980e-01  7.44308252e-01  1.00000000e+00  1.00000000e+00  1.00000000e+00
  1.00000000e+00  1.00000000e+00  3.34945995e-02  2.34726947e-01  8.13757318e-01
  1.00000000e+00  1.83470016e-03  1.40373012e-02  6.88426061e-02  2.32184421e-01
  4.67941342e-01  3.62312032e-01 -1.19332409e-01 -1.60854212e-01  1.14345648e+00
  6.89990956e-02  3.16423980e-01  7.44308252e-01  1.00000000e+00  1.00000000e+00
  1.00000000e+00  1.00000000e+00  1.00000000e+00  3.34945995e-02  2.34726947e-01
  8.13757318e-01  1.00000000e+00  3.34945995e-02  2.34726947e-01  8.13757318e-01
  1.00000000e+00  3.34945995e-02  2.34726947e-01  8.13757318e-01  1.00000000e+00
  3.34945995e-02  2.34726947e-01  8.13757318e-01  1.00000000e+00  3.34945995e-02
  2.34726947e-01  8.13757318e-01  1.00000000e+00  3.34945995e-02  2.34726947e-01
  8.13757318e-01  1.00000000e+00  3.34945995e-02  2.34726947e-01  8.13757318e-01
  1.00000000e+00
Coordinates of each shell                  R   N=         546
 -4.42414880e+00 -7.68127083e-01  4.20370596e+00 -4.42414880e+00 -7.68127083e-01
  4.20370596e+00 -4.42414880e+00 -7.68127083e-01  4.20370596e+00 -4.42414880e+00
 -7.68127083e-01  4.20370596e+00 -4.42414880e+00 -7.68127083e-01  4.20370596e+00
 -4.42414880e+00 -7.68127083e-01  4.20370596e+00 -4.42414880e+00 -7.68127083e-01
  4.20370596e+00 -4.42414880e+00 -7.68127083e-01  4.20370596e+00 -2.21608464e+00
  2.94624829e-01  5.85919638e+00 -2.21608464e+00  2.94624829e-01  5.85919638e+00
 -2.21608464e+00  2.94624829e-01  5.85919638e+00 -2.21608464e+00  2.94624829e-01
  5.85919638e+00 -2.21608464e+00  2.94624829e-01  5.85919638e+00 -2.21608464e+00
  2.94624829e-01  5.85919638e+00 -2.21608464e+00  2.94624829e-01  5.85919638e+00
 -2.21608464e+00  2.94624829e-01  5.85919638e+00  1.62648883e-01 -4.17991361e-01
  4.31368239e+00  1.62648883e-01 -4.17991361e-01  4.31368239e+00  1.62648883e-01
 -4.17991361e-01  4.31368239e+00  1.62648883e-01 -4.17991361e-01  4.31368239e+00
  1.62648883e-01 -4.17991361e-01  4.31368239e+00  1.62648883e-01 -4.17991361e-01
  4.31368239e+00  1.62648883e-01 -4.17991361e-01  4.31368239e+00  1.62648883e-01
 -4.17991361e-01  4.31368239e+00  2.09027978e-01  1.26514633e+00  1.89957809e+00
  2.09027978e-01  1.26514633e+00  1.89957809e+00  2.09027978e-01  1.26514633e+00
  1.89957809e+00  2.09027978e-01  1.26514633e+00  1.89957809e+00  2.09027978e-01
  1.26514633e+00  1.89957809e+00  2.09027978e-01  1.26514633e+00  1.89957809e+00
  2.09027978e-01  1.26514633e+00  1.89957809e+00  2.09027978e-01  1.26514633e+00
  1.89957809e+00  4.73123945e+00 -1.62284364e-01  7.85512987e-01  4.73123945e+00
 -1.62284364e-01  7.85512987e-01  4.73123945e+00 -1.62284364e-01  7.85512987e-01
  4.73123945e+00 -1.62284364e-01  7.85512987e-01  4.73123945e+00 -1.62284364e-01
  7.85512987e-01  4.73123945e+00 -1.62284364e-01  7.85512987e-01  4.73123945e+00
 -1.62284364e-01  7.85512987e-01  4.73123945e+00 -1.62284364e-01  7.85512987e-01
  2.78439248e+00  1.63730110e+00  6.77894106e-01  2.78439248e+00  1.63730110e+00
  6.77894106e-01  2.78439248e+00  1.63730110e+00  6.77894106e-01  2.78439248e+00
  1.63730110e+00  6.77894106e-01  2.78439248e+00  1.63730110e+00  6.77894106e-01
  2.78439248e+00  1.63730110e+00  6.77894106e-01  2.78439248e+00  1.63730110e+00
  6.77894106e-01  2.78439248e+00  1.63730110e+00  6.77894106e-01  7.06668501e+00
  2.76194531e-01 -3.70317735e-01  7.06668501e+00  2.76194531e-01 -3.70317735e-01
  7.06668501e+00  2.76194531e-01 -3.70317735e-01  7.06668501e+00  2.76194531e-01
 -3.70317735e-01  7.06668501e+00  2.76194531e-01 -3.70317735e-01  7.06668501e+00
  2.76194531e-01 -3.70317735e-01  7.06668501e+00  2.76194531e-01 -3.70317735e-01
  7.06668501e+00  2.76194531e-01 -3.70317735e-01  7.51304539e+00  2.53060697e+00
 -1.66902224e+00  7.51304539e+00  2.53060697e+00 -1.66902224e+00  7.51304539e+00
  2.53060697e+00 -1.66902224e+00  7.51304539e+00  2.53060697e+00 -1.66902224e+00
  7.51304539e+00  2.53060697e+00 -1.66902224e+00  7.51304539e+00  2.53060697e+00
 -1.66902224e+00  7.51304539e+00  2.53060697e+00 -1.66902224e+00  7.51304539e+00
  2.53060697e+00 -1.66902224e+00 -3.02452016e+00 -2.04772803e+00  1.97405443e+00
 -3.02452016e+00 -2.04772803e+00  1.97405443e+00 -3.02452016e+00 -2.04772803e+00
  1.97405443e+00 -3.02452016e+00 -2.04772803e+00  1.97405443e+00 -3.02452016e+00
 -2.04772803e+00  1.97405443e+00 -3.02452016e+00 -2.04772803e+00  1.97405443e+00
 -3.02452016e+00 -2.04772803e+00  1.97405443e+00 -3.02452016e+00 -2.04772803e+00
  1.97405443e+00 -1.95612091e+00  2.49187670e-02  1.83279081e-01 -1.95612091e+00
  2.49187670e-02  1.83279081e-01 -1.95612091e+00  2.49187670e-02  1.83279081e-01
 -1.95612091e+00  2.49187670e-02  1.83279081e-01 -1.95612091e+00  2.49187670e-02
  1.83279081e-01 -1.95612091e+00  2.49187670e-02  1.83279081e-01 -1.95612091e+00
  2.49187670e-02  1.83279081e-01 -1.95612091e+00  2.49187670e-02  1.83279081e-01
  3.27556074e+00  3.90113420e+00 -6.22172230e-01  3.27556074e+00  3.90113420e+00
 -6.22172230e-01  3.27556074e+00  3.90113420e+00 -6.22172230e-01  3.27556074e+00
  3.90113420e+00 -6.22172230e-01  3.27556074e+00  3.90113420e+00 -6.22172230e-01
  3.27556074e+00  3.90113420e+00 -6.22172230e-01  3.27556074e+00  3.90113420e+00
 -6.22172230e-01  3.27556074e+00  3.90113420e+00 -6.22172230e-01  5.60074584e+00
  4.34860238e+00 -1.78804525e+00  5.60074584e+00  4.34860238e+00 -1.78804525e+00
  5.60074584e+00  4.34860238e+00 -1.78804525e+00  5.60074584e+00  4.34860238e+00
 -1.78804525e+00  5.60074584e+00  4.34860238e+00 -1.78804525e+00  5.60074584e+00
  4.34860238e+00 -1.78804525e+00  5.60074584e+00  4.34860238e+00 -1.78804525e+00
  5.60074584e+00  4.34860238e+00 -1.78804525e+00  8.54102154e+00 -1.15044334e+00
 -2.48062942e-01  8.54102154e+00 -1.15044334e+00 -2.48062942e-01  9.32971253e+00
  2.87168401e+00 -2.56537261e+00  9.32971253e+00  2.87168401e+00 -2.56537261e+00
  4.44301928e+00 -1.92758628e+00  1.79114477e+00  4.44301928e+00 -1.92758628e+00
  1.79114477e+00  5.92084955e+00  6.12173133e+00 -2.77637668e+00  5.92084955e+00
  6.12173133e+00 -2.77637668e+00  1.80654204e+00  5.33810033e+00 -7.17376618e-01