Generated by Psi4
     FORCE                           RHF                       TESTBAS
Number of atoms                            I               42
Charge                                     I                0
Multiplicity                               I                1
Number of electrons                        I              134
Number of alpha electrons                  I               67
Number of beta electrons                   I               67
Number of basis functions                  I              390
Number of independent functions            I              390
Atomic numbers                             I   N=          42
           6           6           6           6           6           6
           7           6           6           1           1           1
           1           1           6           6           1           1
           7           6           6           1           1           6
           1           1           6           6           1           1
           6           1           1           1           1           1
           1           1           1           1           1           1
Nuclear charges                            R   N=          42
  6.00000000e+00  6.00000000e+00  6.00000000e+00  6.00000000e+00  6.00000000e+00
  6.00000000e+00  7.00000000e+00  6.00000000e+00  6.00000000e+00  1.00000000e+00
  1.00000000e+00  1.00000000e+00  1.00000000e+00  1.00000000e+00  6.00000000e+00
  6.00000000e+00  1.00000000e+00  1.00000000e+00  7.00000000e+00  6.00000000e+00
  6.00000000e+00  1.00000000e+00  1.00000000e+00  6.00000000e+00  1.00000000e+00
  1.00000000e+00  6.00000000e+00  6.00000000e+00  1.00000000e+00  1.00000000e+00
  6.00000000e+00  1.00000000e+00  1.00000000e+00  1.00000000e+00  1.00000000e+00
  1.00000000e+00  1.00000000e+00  1.00000000e+00  1.00000000e+00  1.00000000e+00
  1.00000000e+00  1.00000000e+00
Current cartesian coordinates              R   N=         126
  1.55514338e+00 -5.82115325e-01 -2.64808407e+00  4.46649706e+00  2.33830245e+00
  1.13807986e-01  3.50391802e+00  1.25872733e+00 -2.11968313e+00  6.42312744e+00
  4.08640384e+00 -4.52431153e-02  7.45114226e+00  4.79160652e+00 -2.40489333e+00
  1.52936160e+00 -8.80968128e-01 -5.22817989e+00  3.32938747e+00  6.62712172e-01
 -6.33689556e+00  4.57824071e+00  1.99463243e+00 -4.47391210e+00  6.54584489e+00
  3.75539062e+00 -4.64655963e+00  8.97796854e+00  6.16390434e+00 -2.47236499e+00
  7.34326620e+00  4.29522677e+00 -6.46228602e+00  3.69645354e+00  1.81158115e+00
  1.94413263e+00  3.69682980e+00  7.60813810e-01 -8.20459607e+00  3.58974342e-01
 -2.09671267e+00 -6.38444942e+00 -1.41242660e-01 -1.88012076e+00 -7.73160311e-01
 -2.29186914e+00 -1.70775917e-01  2.05974864e-01  9.51101428e-01 -2.54011695e+00
  8.63376905e-01 -9.48645224e-01 -3.57805343e+00 -1.64756520e+00 -3.96794870e+00
 -1.45726290e+00  2.00552385e+00 -5.77900643e+00 -3.14793568e+00  7.42049570e-01
 -5.12958407e+00  2.76977974e-01  3.84670282e+00 -3.36378805e+00  5.85063541e-01
 -1.42571435e+00 -1.45283694e+00  1.46334963e+00  1.14985237e+00 -3.73763722e+00
  4.65597221e-01  6.39095337e+00 -7.05328132e+00 -3.81992680e-01  4.23397740e+00
 -5.33399763e+00  2.18781285e+00  3.02277997e+00 -1.04420465e+00  1.52497155e+00
  6.29069265e+00 -6.13496936e+00 -5.73916751e+00  2.00778769e+00 -5.09612751e+00
 -3.49149494e+00 -1.18326875e+00 -7.63746632e+00 -2.21248524e+00  5.27140949e-01
 -7.42708248e+00 -5.71913197e+00  4.60051109e+00  7.17743445e+00  4.92701697e+00
  1.67047204e+00 -3.69087160e+00 -1.42101340e+00  7.25342836e+00 -4.89178007e+00
  1.66336375e+00  7.63900473e+00  2.06246608e-01  2.93500963e-01  5.19211718e+00
 -2.48050533e-01  1.67618190e+00  8.19850218e+00 -9.97891723e-01  3.41842118e+00
  5.44291051e+00 -4.27290917e+00 -6.64097284e+00  2.16924275e+00 -7.25909402e+00
 -6.91171348e+00  7.09187726e-01 -6.29508847e+00 -4.71384567e+00  6.01131871e+00
 -7.70692050e+00 -7.65282876e+00  5.29257480e+00 -9.29234224e+00 -4.81293718e+00
  4.50983148e+00
Integer atomic weights                     I   N=          42
          12          12          12          12          12          12
          14          12          12           1           1           1
           1           1          12          12           1           1
          14          12          12           1           1          12
           1           1          12          12           1           1
          12           1           1           1           1           1
           1           1           1           1           1           1
Real atomic weights                        R   N=          42
  1.20000000e+01  1.20000000e+01  1.20000000e+01  1.20000000e+01  1.20000000e+01
  1.20000000e+01  1.40030740e+01  1.20000000e+01  1.20000000e+01  1.00782503e+00
  1.00782503e+00  1.00782503e+00  1.00782503e+00  1.00782503e+00  1.20000000e+01
  1.20000000e+01  1.00782503e+00  1.00782503e+00  1.40030740e+01  1.20000000e+01
  1.20000000e+01  1.00782503e+00  1.00782503e+00  1.20000000e+01  1.00782503e+00
  1.00782503e+00  1.20000000e+01  1.20000000e+01  1.00782503e+00  1.00782503e+00
  1.20000000e+01  1.00782503e+00  1.00782503e+00  1.00782503e+00  1.00782503e+00
  1.00782503e+00  1.00782503e+00  1.00782503e+00  1.00782503e+00  1.00782503e+00
  1.00782503e+00  1.00782503e+00
Number of primitive shells                 I              402
Number of contracted shells                I              192
Pure/Cartesian d shells                    I                1
Pure/Cartesian f shells                    I                1
Highest angular momentum                   I                2
Largest degree of contraction              I                6
Shell types                                I   N=         192
           0           0           1           0           1           2
           0           1           0           0           1           0
           1           2           0           1           0           0
           1           0           1           2           0           1
           0           0           1           0           1           2
           0           1           0           0           1           0
           1           2           0           1           0           0
           1           0           1           2           0           1
           0           0           1           0           1           2
           0           1           0           0           1           0
           1           2           0           1           0           0
           1           0           1           2           0           1
           0           0           0           0           0           0
           0           0           0           0           0           0
           1           0           1           2           0           1
           0           0           1           0           1           2
           0           1           0           0           0           0
           0           0           1           0           1           2
           0           1           0           0           1           0
           1           2           0           1           0           0
           1           0           1           2           0           1
           0           0           0           0           0           0
           1           0           1           2           0           1
           0           0           0           0           0           0
           1           0           1           2           0           1
           0           0           1           0           1           2
           0           1           0           0           0           0
           0           0           1           0           1           2
           0           1           0           0           0           0
           0           0           0           0           0           0
           0           0           0           0           0           0
           0           0           0           0           0           0
Number of primitives per shell             I   N=         192
           6           3           3           1           1           1
           1           1           6           3           3           1
           1           1           1           1           6           3
           3           1           1           1           1           1
           6           3           3           1           1           1
           1           1           6           3           3           1
           1           1           1           1           6           3
           3           1           1           1           1           1
           6           3           3           1           1           1
           1           1           6           3           3           1
           1           1           1           1           6           3
           3           1           1           1           1           1
           3           1           3           1           3           1
           3           1           3           1           6           3
           3           1           1           1           1           1
           6           3           3           1           1           1
           1           1           3           1           3           1
           6           3           3           1           1           1
           1           1           6           3           3           1
           1           1           1           1           6           3
           3           1           1           1           1           1
           3           1           3           1           6           3
           3           1           1           1           1           1
           3           1           3           1           6           3
           3           1           1           1           1           1
           6           3           3           1           1           1
           1           1           3           1           3           1
           6           3           3           1           1           1
           1           1           3           1           3           1
           3           1           3           1           3           1
           3           1           3           1           3           1
           3           1           3           1           3           1
Shell to atom map                          I   N=         192
           1           1           1           1           1           1
           1           1           2           2           2           2
           2           2           2           2           3           3
           3           3           3           3           3           3
           4           4           4           4           4           4
           4           4           5           5           5           5
           5           5           5           5           6           6
           6           6           6           6           6           6
           7           7           7           7           7           7
           7           7           8           8           8           8
           8           8           8           8           9           9
           9           9           9           9           9           9
          10          10          11          11          12          12
          13          13          14          14          15          15
          15          15          15          15          15          15
          16          16          16          16          16          16
          16          16          17          17          18          18
          19          19          19          19          19          19
          19          19          20          20          20          20
          20          20          20          20          21          21
          21          21          21          21          21          21
          22          22          23          23          24          24
          24          24          24          24          24          24
          25          25          26          26          27          27
          27          27          27          27          27          27
          28          28          28          28          28          28
          28          28          29          29          30          30
          31          31          31          31          31          31
          31          31          32          32          33          33
          34          34          35          35          36          36
          37          37          38          38          39          39
          40          40          41          41          42          42
Primitive exponents                        R   N=         402
  3.04752490e+03  4.57369510e+02  1.03948690e+02  2.92101550e+01  9.28666300e+00
  3.16392700e+00  7.86827240e+00  1.88128850e+00  5.44249300e-01  7.86827240e+00
  1.88128850e+00  5.44249300e-01  1.68714400e-01  1.68714400e-01  8.00000000e-01
  4.38000000e-02  4.38000000e-02  3.04752490e+03  4.57369510e+02  1.03948690e+02
  2.92101550e+01  9.28666300e+00  3.16392700e+00  7.86827240e+00  1.88128850e+00
  5.44249300e-01  7.86827240e+00  1.88128850e+00  5.44249300e-01  1.68714400e-01
  1.68714400e-01  8.00000000e-01  4.38000000e-02  4.38000000e-02  3.04752490e+03
  4.57369510e+02  1.03948690e+02  2.92101550e+01  9.28666300e+00  3.16392700e+00
  7.86827240e+00  1.88128850e+00  5.44249300e-01  7.86827240e+00  1.88128850e+00
  5.44249300e-01  1.68714400e-01  1.68714400e-01  8.00000000e-01  4.38000000e-02
  4.38000000e-02  3.04752490e+03  4.57369510e+02  1.03948690e+02  2.92101550e+01
  9.28666300e+00  3.16392700e+00  7.86827240e+00  1.88128850e+00  5.44249300e-01
  7.86827240e+00  1.88128850e+00  5.44249300e-01  1.68714400e-01  1.68714400e-01
  8.00000000e-01  4.38000000e-02  4.38000000e-02  3.04752490e+03  4.57369510e+02
  1.03948690e+02  2.92101550e+01  9.28666300e+00  3.16392700e+00  7.86827240e+00
  1.88128850e+00  5.44249300e-01  7.86827240e+00  1.88128850e+00  5.44249300e-01
  1.68714400e-01  1.68714400e-01  8.00000000e-01  4.38000000e-02  4.38000000e-02
  3.04752490e+03  4.57369510e+02  1.03948690e+02  2.92101550e+01  9.28666300e+00
  3.16392700e+00  7.86827240e+00  1.88128850e+00  5.44249300e-01  7.86827240e+00
  1.88128850e+00  5.44249300e-01  1.68714400e-01  1.68714400e-01  8.00000000e-01
  4.38000000e-02  4.38000000e-02  4.17351100e+03  6.27457900e+02  1.42902100e+02
  4.02343300e+01  1.28202100e+01  4.39043700e+00  1.16263580e+01  2.71628000e+00
  7.72218000e-01  1.16263580e+01  2.71628000e+00  7.72218000e-01  2.12031300e-01
  2.12031300e-01  8.00000000e-01  6.39000000e-02  6.39000000e-02  3.04752490e+03
  4.57369510e+02  1.03948690e+02  2.92101550e+01  9.28666300e+00  3.16392700e+00
  7.86827240e+00  1.88128850e+00  5.44249300e-01  7.86827240e+00  1.88128850e+00
  5.44249300e-01  1.68714400e-01  1.68714400e-01  8.00000000e-01  4.38000000e-02
  4.38000000e-02  3.04752490e+03  4.57369510e+02  1.03948690e+02  2.92101550e+01
  9.28666300e+00  3.16392700e+00  7.86827240e+00  1.88128850e+00  5.44249300e-01
  7.86827240e+00  1.88128850e+00  5.44249300e-01  1.68714400e-01  1.68714400e-01
  8.00000000e-01  4.38000000e-02  4.38000000e-02  1.87311370e+01  2.82539370e+00
  6.40121700e-01  1.61277800e-01  1.87311370e+01  2.82539370e+00  6.40121700e-01
  1.61277800e-01  1.87311370e+01  2.82539370e+00  6.40121700e-01  1.61277800e-01
  1.87311370e+01  2.82539370e+00  6.40121700e-01  1.61277800e-01  1.87311370e+01
  2.82539370e+00  6.40121700e-01  1.61277800e-01  3.04752490e+03  4.57369510e+02
  1.03948690e+02  2.92101550e+01  9.28666300e+00  3.16392700e+00  7.86827240e+00
  1.88128850e+00  5.44249300e-01  7.86827240e+00  1.88128850e+00  5.44249300e-01
  1.68714400e-01  1.68714400e-01  8.00000000e-01  4.38000000e-02  4.38000000e-02
  3.04752490e+03  4.57369510e+02  1.03948690e+02  2.92101550e+01  9.28666300e+00
  3.16392700e+00  7.86827240e+00  1.88128850e+00  5.44249300e-01  7.86827240e+00
  1.88128850e+00  5.44249300e-01  1.68714400e-01  1.68714400e-01  8.00000000e-01
  4.38000000e-02  4.38000000e-02  1.87311370e+01  2.82539370e+00  6.40121700e-01
  1.61277800e-01  1.87311370e+01  2.82539370e+00  6.40121700e-01  1.61277800e-01
  4.17351100e+03  6.27457900e+02  1.42902100e+02  4.02343300e+01  1.28202100e+01
  4.39043700e+00  1.16263580e+01  2.71628000e+00  7.72218000e-01  1.16263580e+01
  2.71628000e+00  7.72218000e-01  2.12031300e-01  2.12031300e-01  8.00000000e-01
  6.39000000e-02  6.39000000e-02  3.04752490e+03  4.57369510e+02  1.03948690e+02
  2.92101550e+01  9.28666300e+00  3.16392700e+00  7.86827240e+00  1.88128850e+00
  5.44249300e-01  7.86827240e+00  1.88128850e+00  5.44249300e-01  1.68714400e-01
  1.68714400e-01  8.00000000e-01  4.38000000e-02  4.38000000e-02  3.04752490e+03
  4.57369510e+02  1.03948690e+02  2.92101550e+01  9.28666300e+00  3.16392700e+00
  7.86827240e+00  1.88128850e+00  5.44249300e-01  7.86827240e+00  1.88128850e+00
  5.44249300e-01  1.68714400e-01  1.68714400e-01  8.00000000e-01  4.38000000e-02
  4.38000000e-02  1.87311370e+01  2.82539370e+00  6.40121700e-01  1.61277800e-01
  1.87311370e+01  2.82539370e+00  6.40121700e-01  1.61277800e-01  3.04752490e+03
  4.57369510e+02  1.03948690e+02  2.92101550e+01  9.28666300e+00  3.16392700e+00
  7.86827240e+00  1.88128850e+00  5.44249300e-01  7.86827240e+00  1.88128850e+00
  5.44249300e-01  1.68714400e-01  1.68714400e-01  8.00000000e-01  4.38000000e-02
  4.38000000e-02  1.87311370e+01  2.82539370e+00  6.40121700e-01  1.61277800e-01
  1.87311370e+01  2.82539370e+00  6.40121700e-01  1.61277800e-01  3.04752490e+03
  4.57369510e+02  1.03948690e+02  2.92101550e+01  9.28666300e+00  3.16392700e+00
  7.86827240e+00  1.88128850e+00  5.44249300e-01  7.86827240e+00  1.88128850e+00
  5.44249300e-01  1.68714400e-01  1.68714400e-01  8.00000000e-01  4.38000000e-02
  4.38000000e-02  3.04752490e+03  4.57369510e+02  1.03948690e+02  2.92101550e+01
  9.28666300e+00  3.16392700e+00  7.86827240e+00  1.88128850e+00  5.44249300e-01
  7.86827240e+00  1.88128850e+00  5.44249300e-01  1.68714400e-01  1.68714400e-01
  8.00000000e-01  4.38000000e-02  4.38000000e-02  1.87311370e+01  2.82539370e+00
  6.40121700e-01  1.61277800e-01  1.87311370e+01  2.82539370e+00  6.40121700e-01
  1.61277800e-01  3.04752490e+03  4.57369510e+02  1.03948690e+02  2.92101550e+01
  9.28666300e+00  3.16392700e+00  7.86827240e+00  1.88128850e+00  5.44249300e-01
  7.86827240e+00  1.88128850e+00  5.44249300e-01  1.68714400e-01  1.68714400e-01
  8.00000000e-01  4.38000000e-02  4.38000000e-02  1.87311370e+01  2.82539370e+00
  6.40121700e-01  1.61277800e-01  1.87311370e+01  2.82539370e+00  6.40121700e-01
  1.61277800e-01  1.87311370e+01  2.82539370e+00  6.40121700e-01  1.61277800e-01
  1.87311370e+01  2.82539370e+00  6.40121700e-01  1.61277800e-01  1.87311370e+01
  2.82539370e+00  6.40121700e-01  1.61277800e-01  1.87311370e+01  2.82539370e+00
  6.40121700e-01  1.61277800e-01  1.87311370e+01  2.82539370e+00  6.40121700e-01
  1.61277800e-01  1.87311370e+01  2.82539370e+00  6.40121700e-01  1.61277800e-01
  1.87311370e+01  2.82539370e+00  6.40121700e-01  1.61277800e-01  1.87311370e+01
  2.82539370e+00  6.40121700e-01  1.61277800e-01  1.87311370e+01  2.82539370e+00
  6.40121700e-01  1.61277800e-01
Contraction coefficients                   R   N=         402
  1.83470016e-03  1.40373012e-02  6.88426061e-02  2.32184421e-01  4.67941342e-01
  3.62312032e-01 -1.19332409e-01 -1.60854212e-01  1.14345648e+00  6.89990956e-02
  3.16423980e-01  7.44308252e-01  1.00000000e+00  1.00000000e+00  1.00000000e+00
  1.00000000e+00  1.00000000e+00  1.83470016e-03  1.40373012e-02  6.88426061e-02
  2.32184421e-01  4.67941342e-01  3.62312032e-01 -1.19332409e-01 -1.60854212e-01
  1.14345648e+00  6.89990956e-02  3.16423980e-01  7.44308252e-01  1.00000000e+00
  1.00000000e+00  1.00000000e+00  1.00000000e+00  1.00000000e+00  1.83470016e-03
  1.40373012e-02  6.88426061e-02  2.32184421e-01  4.67941342e-01  3.62312032e-01
 -1.19332409e-01 -1.60854212e-01  1.14345648e+00  6.89990956e-02  3.16423980e-01
  7.44308252e-01  1.00000000e+00  1.00000000e+00  1.00000000e+00  1.00000000e+00
  1.00000000e+00  1.83470016e-03  1.40373012e-02  6.88426061e-02  2.32184421e-01
  4.67941342e-01  3.62312032e-01 -1.19332409e-01 -1.60854212e-01  1.14345648e+00
  6.89990956e-02  3.16423980e-01  7.44308252e-01  1.00000000e+00  1.00000000e+00
  1.00000000e+00  1.00000000e+00  1.00000000e+00  1.83470016e-03  1.40373012e-02
  6.88426061e-02  2.32184421e-01  4.67941342e-01  3.62312032e-01 -1.19332409e-01
 -1.60854212e-01  1.14345648e+00  6.89990956e-02  3.16423980e-01  7.44308252e-01
  1.00000000e+00  1.00000000e+00  1.00000000e+00  1.00000000e+00  1.00000000e+00
  1.83470016e-03  1.40373012e-02  6.88426061e-02  2.32184421e-01  4.67941342e-01
  3.62312032e-01 -1.19332409e-01 -1.60854212e-01  1.14345648e+00  6.89990956e-02
  3.16423980e-01  7.44308252e-01  1.00000000e+00  1.00000000e+00  1.00000000e+00
  1.00000000e+00  1.00000000e+00  1.83479944e-03  1.39949958e-02  6.85869792e-02
  2.32240930e-01  4.69069858e-01  3.60454891e-01 -1.14961023e-01 -1.69118034e-01
  1.14585223e+00  6.75800232e-02  3.23907111e-01  7.40895255e-01  1.00000000e+00
  1.00000000e+00  1.00000000e+00  1.00000000e+00  1.00000000e+00  1.83470016e-03
  1.40373012e-02  6.88426061e-02  2.32184421e-01  4.67941342e-01  3.62312032e-01
 -1.19332409e-01 -1.60854212e-01  1.14345648e+00  6.89990956e-02  3.16423980e-01
  7.44308252e-01  1.00000000e+00  1.00000000e+00  1.00000000e+00  1.00000000e+00
  1.00000000e+00  1.83470016e-03  1.40373012e-02  6.88426061e-02  2.32184421e-01
  4.67941342e-01  3.62312032e-01 -1.19332409e-01 -1.60854212e-01  1.14345648e+00
  6.89990956e-02  3.16423980e-01  7.44308252e-01  1.00000000e+00  1.00000000e+00
  1.00000000e+00  1.00000000e+00  1.00000000e+00  3.34945995e-02  2.34726947e-01
  8.13757318e-01  1.00000000e+00  3.34945995e-02  2.34726947e-01  8.13757318e-01
  1.00000000e+00  3.34945995e-02  2.34726947e-01  8.13757318e-01  1.00000000e+00
  3.34945995e-02  2.34726947e-01  8.13757318e-01  1.00000000e+00  3.34945995e-02
  2.34726947e-01  8.13757318e-01  1.00000000e+00  1.83470016e-03  1.40373012e-02
  6.88426061e-02  2.32184421e-01  4.67941342e-01  3.62312032e-01 -1.19332409e-01
 -1.60854212e-01  1.14345648e+00  6.89990956e-02  3.16423980e-01  7.44308252e-01
  1.00000000e+00  1.00000000e+00  1.00000000e+00  1.00000000e+00  1.00000000e+00
  1.83470016e-03  1.40373012e-02  6.88426061e-02  2.32184421e-01  4.67941342e-01
  3.62312032e-01 -1.19332409e-01 -1.60854212e-01  1.14345648e+00  6.89990956e-02
  3.16423980e-01  7.44308252e-01  1.00000000e+00  1.00000000e+00  1.00000000e+00
  1.00000000e+00  1.00000000e+00  3.34945995e-02  2.34726947e-01  8.13757318e-01
  1.00000000e+00  3.34945995e-02  2.34726947e-01  8.13757318e-01  1.00000000e+00
  1.83479944e-03  1.39949958e-02  6.85869792e-02  2.32240930e-01  4.69069858e-01
  3.60454891e-01 -1.14961023e-01 -1.69118034e-01  1.14585223e+00  6.75800232e-02
  3.23907111e-01  7.40895255e-01  1.00000000e+00  1.00000000e+00  1.00000000e+00
  1.00000000e+00  1.00000000e+00  1.83470016e-03  1.40373012e-02  6.88426061e-02
  2.32184421e-01  4.67941342e-01  3.62312032e-01 -1.19332409e-01 -1.60854212e-01
  1.14345648e+00  6.89990956e-02  3.16423980e-01  7.44308252e-01  1.00000000e+00
  1.00000000e+00  1.00000000e+00  1.00000000e+00  1.00000000e+00  1.83470016e-03
  1.40373012e-02  6.88426061e-02  2.32184421e-01  4.67941342e-01  3.62312032e-01
 -1.19332409e-01 -1.60854212e-01  1.14345648e+00  6.89990956e-02  3.16423980e-01
  7.44308252e-01  1.00000000e+00  1.00000000e+00  1.00000000e+00  1.00000000e+00
  1.00000000e+00  3.34945995e-02  2.34726947e-01  8.13757318e-01  1.00000000e+00
  3.34945995e-02  2.34726947e-01  8.13757318e-01  1.00000000e+00  1.83470016e-03
  1.40373012e-02  6.88426061e-02  2.32184421e-01  4.67941342e-01  3.62312032e-01
 -1.19332409e-01 -1.60854212e-01  1.14345648e+00  6.89990956e-02  3.16423980e-01
  7.44308252e-01  1.00000000e+00  1.00000000e+00  1.00000000e+00  1.00000000e+00
  1.00000000e+00  3.34945995e-02  2.34726947e-01  8.13757318e-01  1.00000000e+00
  3.34945995e-02  2.34726947e-01  8.13757318e-01  1.00000000e+00  1.83470016e-03
  1.40373012e-02  6.88426061e-02  2.32184421e-01  4.67941342e-01  3.62312032e-01
 -1.19332409e-01 -1.60854212e-01  1.14345648e+00  6.89990956e-02  3.16423980e-01
  7.44308252e-01  1.00000000e+00  1.00000000e+00  1.00000000e+00  1.00000000e+00
  1.00000000e+00  1.83470016e-03  1.40373012e-02  6.88426061e-02  2.32184421e-01
  4.67941342e-01  3.62312032e-01 -1.19332409e-01 -1.60854212e-01  1.14345648e+00
  6.89990956e-02  3.16423980e-01  7.44308252e-01  1.00000000e+00  1.00000000e+00
  1.00000000e+00  1.00000000e+00  1.00000000e+00  3.34945995e-02  2.34726947e-01
  8.13757318e-01  1.00000000e+00  3.34945995e-02  2.34726947e-01  8.13757318e-01
  1.00000000e+00  1.83470016e-03  1.40373012e-02  6.88426061e-02  2.32184421e-01
  4.67941342e-01  3.62312032e-01 -1.19332409e-01 -1.60854212e-01  1.14345648e+00
  6.89990956e-02  3.16423980e-01  7.44308252e-01  1.00000000e+00  1.00000000e+00
  1.00000000e+00  1.00000000e+00  1.00000000e+00  3.34945995e-02  2.34726947e-01
  8.13757318e-01  1.00000000e+00  3.34945995e-02  2.34726947e-01  8.13757318e-01
  1.00000000e+00  3.34945995e-02  2.34726947e-01  8.13757318e-01  1.00000000e+00
  3.34945995e-02  2.34726947e-01  8.13757318e-01  1.00000000e+00  3.34945995e-02
  2.34726947e-01  8.13757318e-01  1.00000000e+00  3.34945995e-02  2.34726947e-01
  8.13757318e-01  1.00000000e+00  3.34945995e-02  2.34726947e-01  8.13757318e-01
  1.00000000e+00  3.34945995e-02  2.34726947e-01  8.13757318e-01  1.00000000e+00
  3.34945995e-02  2.34726947e-01  8.13757318e-01  1.00000000e+00  3.34945995e-02
  2.34726947e-01  8.13757318e-01  1.00000000e+00  3.34945995e-02  2.34726947e-01
  8.13757318e-01  1.00000000e+00
Coordinates of each shell                  R   N=         576
  1.55514338e+00 -5.82115325e-01 -2.64808407e+00  1.55514338e+00 -5.82115325e-01
 -2.64808407e+00  1.55514338e+00 -5.82115325e-01 -2.64808407e+00  1.55514338e+00
 -5.82115325e-01 -2.64808407e+00  1.55514338e+00 -5.82115325e-01 -2.64808407e+00
  1.55514338e+00 -5.82115325e-01 -2.64808407e+00  1.55514338e+00 -5.82115325e-01
 -2.64808407e+00  1.55514338e+00 -5.82115325e-01 -2.64808407e+00  4.46649706e+00
  2.33830245e+00  1.13807986e-01  4.46649706e+00  2.33830245e+00  1.13807986e-01
  4.46649706e+00  2.33830245e+00  1.13807986e-01  4.46649706e+00  2.33830245e+00
  1.13807986e-01  4.46649706e+00  2.33830245e+00  1.13807986e-01  4.46649706e+00
  2.33830245e+00  1.13807986e-01  4.46649706e+00  2.33830245e+00  1.13807986e-01
  4.46649706e+00  2.33830245e+00  1.13807986e-01  3.50391802e+00  1.25872733e+00
 -2.11968313e+00  3.50391802e+00  1.25872733e+00 -2.11968313e+00  3.50391802e+00
  1.25872733e+00 -2.11968313e+00  3.50391802e+00  1.25872733e+00 -2.11968313e+00
  3.50391802e+00  1.25872733e+00 -2.11968313e+00  3.50391802e+00  1.25872733e+00
 -2.11968313e+00  3.50391802e+00  1.25872733e+00 -2.11968313e+00  3.50391802e+00
  1.25872733e+00 -2.11968313e+00  6.42312744e+00  4.08640384e+00 -4.52431153e-02
  6.42312744e+00  4.08640384e+00 -4.52431153e-02  6.42312744e+00  4.08640384e+00
 -4.52431153e-02  6.42312744e+00  4.08640384e+00 -4.52431153e-02  6.42312744e+00
  4.08640384e+00 -4.52431153e-02  6.42312744e+00  4.08640384e+00 -4.52431153e-02
  6.42312744e+00  4.08640384e+00 -4.52431153e-02  6.42312744e+00  4.08640384e+00
 -4.52431153e-02  7.45114226e+00  4.79160652e+00 -2.40489333e+00  7.45114226e+00
  4.79160652e+00 -2.40489333e+00  7.45114226e+00  4.79160652e+00 -2.40489333e+00
  7.45114226e+00  4.79160652e+00 -2.40489333e+00  7.45114226e+00  4.79160652e+00
 -2.40489333e+00  7.45114226e+00  4.79160652e+00 -2.40489333e+00  7.45114226e+00
  4.79160652e+00 -2.40489333e+00  7.45114226e+00  4.79160652e+00 -2.40489333e+00
  1.52936160e+00 -8.80968128e-01 -5.22817989e+00  1.52936160e+00 -8.80968128e-01
 -5.22817989e+00  1.52936160e+00 -8.80968128e-01 -5.22817989e+00  1.52936160e+00
 -8.80968128e-01 -5.22817989e+00  1.52936160e+00 -8.80968128e-01 -5.22817989e+00
  1.52936160e+00 -8.80968128e-01 -5.22817989e+00  1.52936160e+00 -8.80968128e-01
 -5.22817989e+00  1.52936160e+00 -8.80968128e-01 -5.22817989e+00  3.32938747e+00
  6.62712172e-01 -6.33689556e+00  3.32938747e+00  6.62712172e-01 -6.33689556e+00
  3.32938747e+00  6.62712172e-01 -6.33689556e+00  3.32938747e+00  6.62712172e-01
 -6.33689556e+00  3.32938747e+00  6.62712172e-01 -6.33689556e+00  3.32938747e+00
  6.62712172e-01 -6.33689556e+00  3.32938747e+00  6.62712172e-01 -6.33689556e+00
  3.32938747e+00  6.62712172e-01 -6.33689556e+00  4.57824071e+00  1.99463243e+00
 -4.47391210e+00  4.57824071e+00  1.99463243e+00 -4.47391210e+00  4.57824071e+00
  1.99463243e+00 -4.47391210e+00  4.57824071e+00  1.99463243e+00 -4.47391210e+00
  4.57824071e+00  1.99463243e+00 -4.47391210e+00  4.57824071e+00  1.99463243e+00
 -4.47391210e+00  4.57824071e+00  1.99463243e+00 -4.47391210e+00  4.57824071e+00
  1.99463243e+00 -4.47391210e+00  6.54584489e+00  3.75539062e+00 -4.64655963e+00
  6.54584489e+00  3.75539062e+00 -4.64655963e+00  6.54584489e+00  3.75539062e+00
 -4.64655963e+00  6.54584489e+00  3.75539062e+00 -4.64655963e+00  6.54584489e+00
  3.75539062e+00 -4.64655963e+00  6.54584489e+00  3.75539062e+00 -4.64655963e+00
  6.54584489e+00  3.75539062e+00 -4.64655963e+00  6.54584489e+00  3.75539062e+00
 -4.64655963e+00  8.97796854e+00  6.16390434e+00 -2.47236499e+00  8.97796854e+00
  6.16390434e+00 -2.47236499e+00  7.34326620e+00  4.29522677e+00 -6.46228602e+00
  7.34326620e+00  4.29522677e+00 -6.46228602e+00  3.69645354e+00  1.81158115e+00
  1.94413263e+00  3.69645354e+00  1.81158115e+00  1.94413263e+00  3.69682980e+00
  7.60813810e-01 -8.20459607e+00  3.69682980e+00  7.60813810e-01 -8.20459607e+00