Generated by Psi4
     FORCE                           RHF                       TESTBAS
Number of atoms                            I               31
Charge                                     I                0
Multiplicity                               I                1
Number of electrons                        I              122
Number of alpha electrons                  I               61
Number of beta electrons                   I               61
Number of basis functions                  I              321
Number of independent functions            I              321
Atomic numbers                             I   N=          31
           6           6           6           1           1           7
           6           6           6           6           6           1
           1           1           8           6           1           1
           1           1           8           6           1           1
           1          17           6           1           1           1
           1
Nuclear charges                            R   N=          31
  6.00000000e+00  6.00000000e+00  6.00000000e+00  1.00000000e+00  1.00000000e+00
  7.00000000e+00  6.00000000e+00  6.00000000e+00  6.00000000e+00  6.00000000e+00
  6.00000000e+00  1.00000000e+00  1.00000000e+00  1.00000000e+00  8.00000000e+00
  6.00000000e+00  1.00000000e+00  1.00000000e+00  1.00000000e+00  1.00000000e+00
  8.00000000e+00  6.00000000e+00  1.00000000e+00  1.00000000e+00  1.00000000e+00
  1.70000000e+01  6.00000000e+00  1.00000000e+00  1.00000000e+00  1.00000000e+00
  1.00000000e+00
Current cartesian coordinates              R   N=          93
 -3.61346207e-01 -1.23861017e+00  1.39351959e+00 -1.72517146e+00 -2.58518894e+00
  3.51683728e+00 -4.49914935e+00 -1.70583592e+00  3.95841383e+00 -6.73199837e-01
 -2.36360353e+00  5.28598808e+00 -1.77267603e+00 -4.61726216e+00  3.08937279e+00
 -5.84727243e+00 -3.26322798e+00  5.82268098e+00  1.37424901e+00  7.23434271e-01
  1.85738482e+00  2.58280128e+00  1.93607083e+00 -1.58866445e-01  2.06835700e+00
  1.21679314e+00 -2.63986471e+00  3.53293742e-01 -7.32090441e-01 -3.16794059e+00
 -8.25139852e-01 -1.92663560e+00 -1.11974210e+00 -2.14389972e+00 -3.45834523e+00
 -1.46876378e+00 -5.03828994e+00 -3.08129371e+00  7.56320298e+00 -5.76148460e+00
 -5.13109997e+00  5.36051314e+00 -3.59202617e-02 -1.33351840e+00 -5.64353592e+00
 -1.76208478e+00 -3.30360017e+00 -6.23038470e+00 -1.76736691e+00 -3.43923330e+00
 -8.28801643e+00 -3.67574549e+00 -2.85707457e+00 -5.56406608e+00 -1.14827133e+00
 -5.11385577e+00 -5.42259764e+00  3.92922133e+00  3.44466303e+00  1.54776715e-01
  1.79328335e+00  1.33982095e+00  4.34217739e+00  3.57586755e+00  3.26472884e+00
  4.90908065e+00  5.47180657e+00  2.76343163e+00  4.23256487e+00  3.60178045e+00
  3.41599981e+00  6.96551385e+00  3.00895943e+00  5.08626183e+00  4.09448045e+00
  3.61370845e+00  2.77654342e+00 -5.11982637e+00 -4.67654831e+00  1.06598791e+00
  4.76203564e+00 -5.52307958e+00 -1.92591920e+00  2.16450247e+00 -3.71086244e+00
  1.36930012e+00  6.57348425e+00 -6.66006066e+00  1.61130447e+00  4.98221286e+00
 -3.79392945e+00  2.31174092e+00  3.36636570e+00
Integer atomic weights                     I   N=          31
          12          12          12           1           1          14
          12          12          12          12          12           1
           1           1          15          12           1           1
           1           1          15          12           1           1
           1          34          12           1           1           1
           1
Real atomic weights                        R   N=          31
  1.20000000e+01  1.20000000e+01  1.20000000e+01  1.00782503e+00  1.00782503e+00
  1.40030740e+01  1.20000000e+01  1.20000000e+01  1.20000000e+01  1.20000000e+01
  1.20000000e+01  1.00782503e+00  1.00782503e+00  1.00782503e+00  1.59949146e+01
  1.20000000e+01  1.00782503e+00  1.00782503e+00  1.00782503e+00  1.00782503e+00
  1.59949146e+01  1.20000000e+01  1.00782503e+00  1.00782503e+00  1.00782503e+00
  3.49688527e+01  1.20000000e+01  1.00782503e+00  1.00782503e+00  1.00782503e+00
  1.00782503e+00
Number of primitive shells                 I              331
Number of contracted shells                I              154
Pure/Cartesian d shells                    I                1
Pure/Cartesian f shells                    I                1
Highest angular momentum                   I                2
Largest degree of contraction              I                6
Shell types                                I   N=         154
           0           0           1           0           1           2
           0           1           0           0           1           0
           1           2           0           1           0           0
           1           0           1           2           0           1
           0           0           0           0           0           0
           1           0           1           2           0           1
           0           0           1           0           1           2
           0           1           0           0           1           0
           1           2           0           1           0           0
           1           0           1           2           0           1
           0           0           1           0           1           2
           0           1           0           0           1           0
           1           2           0           1           0           0
           0           0           0           0           0           0
           1           0           1           2           0           1
           0           0           1           0           1           2
           0           1           0           0           0           0
           0           0           0           0           0           0
           1           0           1           2           0           1
           0           0           1           0           1           2
           0           1           0           0           0           0
           0           0           0           0           1           0
           1           0           1           2           0           1
           0           0           1           0           1           2
           0           1           0           0           0           0
           0           0           0           0
Number of primitives per shell             I   N=         154
           6           3           3           1           1           1
           1           1           6           3           3           1
           1           1           1           1           6           3
           3           1           1           1           1           1
           3           1           3           1           6           3
           3           1           1           1           1           1
           6           3           3           1           1           1
           1           1           6           3           3           1
           1           1           1           1           6           3
           3           1           1           1           1           1
           6           3           3           1           1           1
           1           1           6           3           3           1
           1           1           1           1           3           1
           3           1           3           1           6           3
           3           1           1           1           1           1
           6           3           3           1           1           1
           1           1           3           1           3           1
           3           1           3           1           6           3
           3           1           1           1           1           1
           6           3           3           1           1           1
           1           1           3           1           3           1
           3           1           6           6           6           3
           3           1           1           1           1           1
           6           3           3           1           1           1
           1           1           3           1           3           1
           3           1           3           1
Shell to atom map                          I   N=         154
           1           1           1           1           1           1
           1           1           2           2           2           2
           2           2           2           2           3           3
           3           3           3           3           3           3
           4           4           5           5           6           6
           6           6           6           6           6           6
           7           7           7           7           7           7
           7           7           8           8           8           8
           8           8           8           8           9           9
           9           9           9           9           9           9
          10          10          10          10          10          10
          10          10          11          11          11          11
          11          11          11          11          12          12
          13          13          14          14          15          15
          15          15          15          15          15          15
          16          16          16          16          16          16
          16          16          17          17          18          18
          19          19          20          20          21          21
          21          21          21          21          21          21
          22          22          22          22          22          22
          22          22          23          23          24          24
          25          25          26          26          26          26
          26          26          26          26          26          26
          27          27          27          27          27          27
          27          27          28          28          29          29
          30          30          31          31
Primitive exponents                        R   N=         331
  3.04752490e+03  4.57369510e+02  1.03948690e+02  2.92101550e+01  9.28666300e+00
  3.16392700e+00  7.86827240e+00  1.88128850e+00  5.44249300e-01  7.86827240e+00
  1.88128850e+00  5.44249300e-01  1.68714400e-01  1.68714400e-01  8.00000000e-01
  4.38000000e-02  4.38000000e-02  3.04752490e+03  4.57369510e+02  1.03948690e+02
  2.92101550e+01  9.28666300e+00  3.16392700e+00  7.86827240e+00  1.88128850e+00
  5.44249300e-01  7.86827240e+00  1.88128850e+00  5.44249300e-01  1.68714400e-01
  1.68714400e-01  8.00000000e-01  4.38000000e-02  4.38000000e-02  3.04752490e+03
  4.57369510e+02  1.03948690e+02  2.92101550e+01  9.28666300e+00  3.16392700e+00
  7.86827240e+00  1.88128850e+00  5.44249300e-01  7.86827240e+00  1.88128850e+00
  5.44249300e-01  1.68714400e-01  1.68714400e-01  8.00000000e-01  4.38000000e-02
  4.38000000e-02  1.87311370e+01  2.82539370e+00  6.40121700e-01  1.61277800e-01
  1.87311370e+01  2.82539370e+00  6.40121700e-01  1.61277800e-01  4.17351100e+03
  6.27457900e+02  1.42902100e+02  4.02343300e+01  1.28202100e+01  4.39043700e+00
  1.16263580e+01  2.71628000e+00  7.72218000e-01  1.16263580e+01  2.71628000e+00
  7.72218000e-01  2.12031300e-01  2.12031300e-01  8.00000000e-01  6.39000000e-02
  6.39000000e-02  3.04752490e+03  4.57369510e+02  1.03948690e+02  2.92101550e+01
  9.28666300e+00  3.16392700e+00  7.86827240e+00  1.88128850e+00  5.44249300e-01
  7.86827240e+00  1.88128850e+00  5.44249300e-01  1.68714400e-01  1.68714400e-01
  8.00000000e-01  4.38000000e-02  4.38000000e-02  3.04752490e+03  4.57369510e+02
  1.03948690e+02  2.92101550e+01  9.28666300e+00  3.16392700e+00  7.86827240e+00
  1.88128850e+00  5.44249300e-01  7.86827240e+00  1.88128850e+00  5.44249300e-01
  1.68714400e-01  1.68714400e-01  8.00000000e-01  4.38000000e-02  4.38000000e-02
  3.04752490e+03  4.57369510e+02  1.03948690e+02  2.92101550e+01  9.28666300e+00
  3.16392700e+00  7.86827240e+00  1.88128850e+00  5.44249300e-01  7.86827240e+00
  1.88128850e+00  5.44249300e-01  1.68714400e-01  1.68714400e-01  8.00000000e-01
  4.38000000e-02  4.38000000e-02  3.04752490e+03  4.57369510e+02  1.03948690e+02
  2.92101550e+01  9.28666300e+00  3.16392700e+00  7.86827240e+00  1.88128850e+00
  5.44249300e-01  7.86827240e+00  1.88128850e+00  5.44249300e-01  1.68714400e-01
  1.68714400e-01  8.00000000e-01  4.38000000e-02  4.38000000e-02  3.04752490e+03
  4.57369510e+02  1.03948690e+02  2.92101550e+01  9.28666300e+00  3.16392700e+00
  7.86827240e+00  1.88128850e+00  5.44249300e-01  7.86827240e+00  1.88128850e+00
  5.44249300e-01  1.68714400e-01  1.68714400e-01  8.00000000e-01  4.38000000e-02
  4.38000000e-02  1.87311370e+01  2.82539370e+00  6.40121700e-01  1.61277800e-01
  1.87311370e+01  2.82539370e+00  6.40121700e-01  1.61277800e-01  1.87311370e+01
  2.82539370e+00  6.40121700e-01  1.61277800e-01  5.48467170e+03  8.25234950e+02
  1.88046960e+02  5.29645000e+01  1.68975700e+01  5.79963530e+00  1.55396160e+01
  3.59993360e+00  1.01376180e+00  1.55396160e+01  3.59993360e+00  1.01376180e+00
  2.70005800e-01  2.70005800e-01  8.00000000e-01  8.45000000e-02  8.45000000e-02
  3.04752490e+03  4.57369510e+02  1.03948690e+02  2.92101550e+01  9.28666300e+00
  3.16392700e+00  7.86827240e+00  1.88128850e+00  5.44249300e-01  7.86827240e+00
  1.88128850e+00  5.44249300e-01  1.68714400e-01  1.68714400e-01  8.00000000e-01
  4.38000000e-02  4.38000000e-02  1.87311370e+01  2.82539370e+00  6.40121700e-01
  1.61277800e-01  1.87311370e+01  2.82539370e+00  6.40121700e-01  1.61277800e-01
  1.87311370e+01  2.82539370e+00  6.40121700e-01  1.61277800e-01  1.87311370e+01
  2.82539370e+00  6.40121700e-01  1.61277800e-01  5.48467170e+03  8.25234950e+02
  1.88046960e+02  5.29645000e+01  1.68975700e+01  5.79963530e+00  1.55396160e+01
  3.59993360e+00  1.01376180e+00  1.55396160e+01  3.59993360e+00  1.01376180e+00
  2.70005800e-01  2.70005800e-01  8.00000000e-01  8.45000000e-02  8.45000000e-02
  3.04752490e+03  4.57369510e+02  1.03948690e+02  2.92101550e+01  9.28666300e+00
  3.16392700e+00  7.86827240e+00  1.88128850e+00  5.44249300e-01  7.86827240e+00
  1.88128850e+00  5.44249300e-01  1.68714400e-01  1.68714400e-01  8.00000000e-01
  4.38000000e-02  4.38000000e-02  1.87311370e+01  2.82539370e+00  6.40121700e-01
  1.61277800e-01  1.87311370e+01  2.82539370e+00  6.40121700e-01  1.61277800e-01
  1.87311370e+01  2.82539370e+00  6.40121700e-01  1.61277800e-01  2.51801000e+04
  3.78035000e+03  8.60474000e+02  2.42145000e+02  7.73349000e+01  2.62470000e+01
  4.91765000e+02  1.16984000e+02  3.74153000e+01  1.37834000e+01  5.45215000e+00
  2.22588000e+00  4.91765000e+02  1.16984000e+02  3.74153000e+01  1.37834000e+01
  5.45215000e+00  2.22588000e+00  3.18649000e+00  1.14427000e+00  4.20377000e-01
  3.18649000e+00  1.14427000e+00  4.20377000e-01  1.42657000e-01  1.42657000e-01
  7.50000000e-01  4.83000000e-02  4.83000000e-02  3.04752490e+03  4.57369510e+02
  1.03948690e+02  2.92101550e+01  9.28666300e+00  3.16392700e+00  7.86827240e+00
  1.88128850e+00  5.44249300e-01  7.86827240e+00  1.88128850e+00  5.44249300e-01
  1.68714400e-01  1.68714400e-01  8.00000000e-01  4.38000000e-02  4.38000000e-02
  1.87311370e+01  2.82539370e+00  6.40121700e-01  1.61277800e-01  1.87311370e+01
  2.82539370e+00  6.40121700e-01  1.61277800e-01  1.87311370e+01  2.82539370e+00
  6.40121700e-01  1.61277800e-01  1.87311370e+01  2.82539370e+00  6.40121700e-01
  1.61277800e-01
Contraction coefficients                   R   N=         331
  1.83470016e-03  1.40373012e-02  6.88426061e-02  2.32184421e-01  4.67941342e-01
  3.62312032e-01 -1.19332409e-01 -1.60854212e-01  1.14345648e+00  6.89990956e-02
  3.16423980e-01  7.44308252e-01  1.00000000e+00  1.00000000e+00  1.00000000e+00
  1.00000000e+00  1.00000000e+00  1.83470016e-03  1.40373012e-02  6.88426061e-02
  2.32184421e-01  4.67941342e-01  3.62312032e-01 -1.19332409e-01 -1.60854212e-01
  1.14345648e+00  6.89990956e-02  3.16423980e-01  7.44308252e-01  1.00000000e+00
  1.00000000e+00  1.00000000e+00  1.00000000e+00  1.00000000e+00  1.83470016e-03
  1.40373012e-02  6.88426061e-02  2.32184421e-01  4.67941342e-01  3.62312032e-01
 -1.19332409e-01 -1.60854212e-01  1.14345648e+00  6.89990956e-02  3.16423980e-01
  7.44308252e-01  1.00000000e+00  1.00000000e+00  1.00000000e+00  1.00000000e+00
  1.00000000e+00  3.34945995e-02  2.34726947e-01  8.13757318e-01  1.00000000e+00
  3.34945995e-02  2.34726947e-01  8.13757318e-01  1.00000000e+00  1.83479944e-03
  1.39949958e-02  6.85869792e-02  2.32240930e-01  4.69069858e-01  3.60454891e-01
 -1.14961023e-01 -1.69118034e-01  1.14585223e+00  6.75800232e-02  3.23907111e-01
  7.40895255e-01  1.00000000e+00  1.00000000e+00  1.00000000e+00  1.00000000e+00
  1.00000000e+00  1.83470016e-03  1.40373012e-02  6.88426061e-02  2.32184421e-01
  4.67941342e-01  3.62312032e-01 -1.19332409e-01 -1.60854212e-01  1.14345648e+00
  6.89990956e-02  3.16423980e-01  7.44308252e-01  1.00000000e+00  1.00000000e+00
  1.00000000e+00  1.00000000e+00  1.00000000e+00  1.83470016e-03  1.40373012e-02
  6.88426061e-02  2.32184421e-01  4.67941342e-01  3.62312032e-01 -1.19332409e-01
 -1.60854212e-01  1.14345648e+00  6.89990956e-02  3.16423980e-01  7.44308252e-01
  1.00000000e+00  1.00000000e+00  1.00000000e+00  1.00000000e+00  1.00000000e+00
  1.83470016e-03  1.40373012e-02  6.88426061e-02  2.32184421e-01  4.67941342e-01
  3.62312032e-01 -1.19332409e-01 -1.60854212e-01  1.14345648e+00  6.89990956e-02
  3.16423980e-01  7.44308252e-01  1.00000000e+00  1.00000000e+00  1.00000000e+00
  1.00000000e+00  1.00000000e+00  1.83470016e-03  1.40373012e-02  6.88426061e-02
  2.32184421e-01  4.67941342e-01  3.62312032e-01 -1.19332409e-01 -1.60854212e-01
  1.14345648e+00  6.89990956e-02  3.16423980e-01  7.44308252e-01  1.00000000e+00
  1.00000000e+00  1.00000000e+00  1.00000000e+00  1.00000000e+00  1.83470016e-03
  1.40373012e-02  6.88426061e-02  2.32184421e-01  4.67941342e-01  3.62312032e-01
 -1.19332409e-01 -1.60854212e-01  1.14345648e+00  6.89990956e-02  3.16423980e-01
  7.44308252e-01  1.00000000e+00  1.00000000e+00  1.00000000e+00  1.00000000e+00
  1.00000000e+00  3.34945995e-02  2.34726947e-01  8.13757318e-01  1.00000000e+00
  3.34945995e-02  2.34726947e-01  8.13757318e-01  1.00000000e+00  3.34945995e-02
  2.34726947e-01  8.13757318e-01  1.00000000e+00  1.83109981e-03  1.39500985e-02
  6.84450927e-02  2.32714275e-01  4.70192950e-01  3.58520862e-01 -1.10777504e-01
 -1.48026305e-01  1.13076704e+00  7.08742995e-02  3.39752798e-01  7.27158595e-01
  1.00000000e+00  1.00000000e+00  1.00000000e+00  1.00000000e+00  1.00000000e+00
  1.83470016e-03  1.40373012e-02  6.88426061e-02  2.32184421e-01  4.67941342e-01
  3.62312032e-01 -1.19332409e-01 -1.60854212e-01  1.14345648e+00  6.89990956e-02
  3.16423980e-01  7.44308252e-01  1.00000000e+00  1.00000000e+00  1.00000000e+00
  1.00000000e+00  1.00000000e+00  3.34945995e-02  2.34726947e-01  8.13757318e-01
  1.00000000e+00  3.34945995e-02  2.34726947e-01  8.13757318e-01  1.00000000e+00
  3.34945995e-02  2.34726947e-01  8.13757318e-01  1.00000000e+00  3.34945995e-02
  2.34726947e-01  8.13757318e-01  1.00000000e+00  1.83109981e-03  1.39500985e-02
  6.84450927e-02  2.32714275e-01  4.70192950e-01  3.58520862e-01 -1.10777504e-01
 -1.48026305e-01  1.13076704e+00  7.08742995e-02  3.39752798e-01  7.27158595e-01
  1.00000000e+00  1.00000000e+00  1.00000000e+00  1.00000000e+00  1.00000000e+00
  1.83470016e-03  1.40373012e-02  6.88426061e-02  2.32184421e-01  4.67941342e-01
  3.62312032e-01 -1.19332409e-01 -1.60854212e-01  1.14345648e+00  6.89990956e-02
  3.16423980e-01  7.44308252e-01  1.00000000e+00  1.00000000e+00  1.00000000e+00
  1.00000000e+00  1.00000000e+00  3.34945995e-02  2.34726947e-01  8.13757318e-01
  1.00000000e+00  3.34945995e-02  2.34726947e-01  8.13757318e-01  1.00000000e+00
  3.34945995e-02  2.34726947e-01  8.13757318e-01  1.00000000e+00  1.83300031e-03
  1.40340024e-02  6.90970118e-02  2.37452040e-01  4.83034082e-01  3.39856058e-01
 -2.29740199e-03 -3.07140266e-02 -1.12528097e-01  4.50160390e-02  5.89353510e-01
  4.65206403e-01  3.98940055e-03  3.03180042e-02  1.29880018e-01  3.27951045e-01
  4.53527062e-01  2.52154035e-01 -2.51831288e-01  6.15893150e-02  1.06018542e+00
 -1.42990127e-02  3.23572288e-01  7.43507661e-01  1.00000000e+00  1.00000000e+00
  1.00000000e+00  1.00000000e+00  1.00000000e+00  1.83470016e-03  1.40373012e-02
  6.88426061e-02  2.32184421e-01  4.67941342e-01  3.62312032e-01 -1.19332409e-01
 -1.60854212e-01  1.14345648e+00  6.89990956e-02  3.16423980e-01  7.44308252e-01
  1.00000000e+00  1.00000000e+00  1.00000000e+00  1.00000000e+00  1.00000000e+00
  3.34945995e-02  2.34726947e-01  8.13757318e-01  1.00000000e+00  3.34945995e-02
  2.34726947e-01  8.13757318e-01  1.00000000e+00  3.34945995e-02  2.34726947e-01
  8.13757318e-01  1.00000000e+00  3.34945995e-02  2.34726947e-01  8.13757318e-01
  1.00000000e+00
Coordinates of each shell                  R   N=         462
 -3.61346207e-01 -1.23861017e+00  1.39351959e+00 -3.61346207e-01 -1.23861017e+00
  1.39351959e+00 -3.61346207e-01 -1.23861017e+00  1.39351959e+00 -3.61346207e-01
 -1.23861017e+00  1.39351959e+00 -3.61346207e-01 -1.23861017e+00  1.39351959e+00
 -3.61346207e-01 -1.23861017e+00  1.39351959e+00 -3.61346207e-01 -1.23861017e+00
  1.39351959e+00 -3.61346207e-01 -1.23861017e+00  1.39351959e+00 -1.72517146e+00
 -2.58518894e+00  3.51683728e+00 -1.72517146e+00 -2.58518894e+00  3.51683728e+00
 -1.72517146e+00 -2.58518894e+00  3.51683728e+00 -1.72517146e+00 -2.58518894e+00
  3.51683728e+00 -1.72517146e+00 -2.58518894e+00  3.51683728e+00 -1.72517146e+00
 -2.58518894e+00  3.51683728e+00 -1.72517146e+00 -2.58518894e+00  3.51683728e+00
 -1.72517146e+00 -2.58518894e+00  3.51683728e+00 -4.49914935e+00 -1.70583592e+00
  3.95841383e+00 -4.49914935e+00 -1.70583592e+00  3.95841383e+00 -4.49914935e+00
 -1.70583592e+00  3.95841383e+00 -4.49914935e+00 -1.70583592e+00  3.95841383e+00
 -4.49914935e+00 -1.70583592e+00  3.95841383e+00 -4.49914935e+00 -1.70583592e+00
  3.95841383e+00 -4.49914935e+00 -1.70583592e+00  3.95841383e+00 -4.49914935e+00
 -1.70583592e+00  3.95841383e+00 -6.73199837e-01 -2.36360353e+00  5.28598808e+00
 -6.73199837e-01 -2.36360353e+00  5.28598808e+00 -1.77267603e+00 -4.61726216e+00
  3.08937279e+00 -1.77267603e+00 -4.61726216e+00  3.08937279e+00 -5.84727243e+00
 -3.26322798e+00  5.82268098e+00 -5.84727243e+00 -3.26322798e+00  5.82268098e+00
 -5.84727243e+00 -3.26322798e+00  5.82268098e+00 -5.84727243e+00 -3.26322798e+00
  5.82268098e+00 -5.84727243e+00 -3.26322798e+00  5.82268098e+00 -5.84727243e+00
 -3.26322798e+00  5.82268098e+00 -5.84727243e+00 -3.26322798e+00  5.82268098e+00
 -5.84727243e+00 -3.26322798e+00  5.82268098e+00  1.37424901e+00  7.23434271e-01
  1.85738482e+00  1.37424901e+00  7.23434271e-01  1.85738482e+00  1.37424901e+00
  7.23434271e-01  1.85738482e+00  1.37424901e+00  7.23434271e-01  1.85738482e+00
  1.37424901e+00  7.23434271e-01  1.85738482e+00  1.37424901e+00  7.23434271e-01
  1.85738482e+00  1.37424901e+00  7.23434271e-01  1.85738482e+00  1.37424901e+00
  7.23434271e-01  1.85738482e+00  2.58280128e+00  1.93607083e+00 -1.58866445e-01
  2.58280128e+00  1.93607083e+00 -1.58866445e-01  2.58280128e+00  1.93607083e+00
 -1.58866445e-01  2.58280128e+00  1.93607083e+00 -1.58866445e-01  2.58280128e+00
  1.93607083e+00 -1.58866445e-01  2.58280128e+00  1.93607083e+00 -1.58866445e-01
  2.58280128e+00  1.93607083e+00 -1.58866445e-01  2.58280128e+00  1.93607083e+00
 -1.58866445e-01  2.06835700e+00  1.21679314e+00 -2.63986471e+00  2.06835700e+00
  1.21679314e+00 -2.63986471e+00  2.06835700e+00  1.21679314e+00 -2.63986471e+00
  2.06835700e+00  1.21679314e+00 -2.63986471e+00  2.06835700e+00  1.21679314e+00
 -2.63986471e+00  2.06835700e+00  1.21679314e+00 -2.63986471e+00  2.06835700e+00
  1.21679314e+00 -2.63986471e+00  2.06835700e+00  1.21679314e+00 -2.63986471e+00
  3.53293742e-01 -7.32090441e-01 -3.16794059e+00  3.53293742e-01 -7.32090441e-01
 -3.16794059e+00  3.53293742e-01 -7.32090441e-01 -3.16794059e+00  3.53293742e-01
 -7.32090441e-01 -3.16794059e+00  3.53293742e-01 -7.32090441e-01 -3.16794059e+00
  3.53293742e-01 -7.32090441e-01 -3.16794059e+00  3.53293742e-01 -7.32090441e-01
 -3.16794059e+00  3.53293742e-01 -7.32090441e-01 -3.16794059e+00 -8.25139852e-01
 -1.92663560e+00 -1.11974210e+00 -8.25139852e-01 -1.92663560e+00 -1.11974210e+00
 -8.25139852e-01 -1.92663560e+00 -1.11974210e+00 -8.25139852e-01 -1.92663560e+00
 -1.11974210e+00 -8.25139852e-01 -1.92663560e+00 -1.11974210e+00 -8.25139852e-01
 -1.92663560e+00 -1.11974210e+00 -8.25139852e-01 -1.92663560e+00 -1.11974210e+00
 -8.25139852e-01 -1.92663560e+00 -1.11974210e+00 -2.14389972e+00 -3.45834523e+00
 -1.46876378e+00 -2.14389972e+00 -3.45834523e+00 -1.46876378e+00 -5.03828994e+00
 -3.08129371e+00  7.56320298e+00 -5.03828994e+00 -3.08129371e+00  7.56320298e+00
 -5.76148460e+00 -5.13109997e+00  5.36051314e+00 -5.76148460e+00 -5.13109997e+00
  5.36051314e+00 -3.59202617e-02 -1.33351840e+00 -5.64353592e+00 -3.59202617e-02
 -1.33351840e+00 -5.64353592e+00 -3.59202617e-02 -1.33351840e+00 -5.64353592e+00
 -3.59202617e-02 -1.33351840e+00 -5.64353592e+00 -3.59202617e-02 -1.33351840e+00
 -5.64353592e+00 -3.59202617e-02 -1.33351840e+00 -5.64353592e+00 -3.59202617e-02
 -1.33351840e+00 -5.64353592e+00 -3.59202617e-02 -1.33351840e+00 -5.64353592e+00
 -1.76208478e+00 -3.30360017e+00 -6.23038470e+00 -1.76208478e+00 -3.30360017e+00
 -6.23038470e+00 -1.76208478e+00 -3.30360017e+00 -6.23038470e+00 -1.76208478e+00
 -3.30360017e+00 -6.23038470e+00 -1.76208478e+00 -3.30360017e+00 -6.23038470e+00
 -1.76208478e+00 -3.30360017e+00 -6.23038470e+00 -1.76208478e+00 -3.30360017e+00
 -6.23038470e+00 -1.76208478e+00 -3.30360017e+00 -6.23038470e+00 -1.76736691e+00
 -3.43923330e+00 -8.28801643e+00 -1.76736691e+00 -3.43923330e+00 -8.28801643e+00
 -3.67574549e+00 -2.85707457e+00 -5.56406608e+00 -3.67574549e+00 -2.85707457e+00
 -5.56406608e+00 -1.14827133e+00 -5.11385577e+00 -5.42259764e+00 -1.14827133e+00
 -5.11385577e+00 -5.42259764e+00  3.92922133e+00  3.44466303e+00  1.54776715e-01
  3.92922133e+00  3.44466303e+00  1.54776715e-01  1.79328335e+00  1.33982095e+00
  4.34217739e+00  1.79328335e+00  1.33982095e+00  4.34217739e+00  1.79328335e+00
  1.33982095e+00  4.34217739e+00  1.79328335e+00  1.33982095e+00  4.34217739e+00
  1.79328335e+00  1.33982095e+00  4.34217739e+00  1.79328335e+00  1.33982095e+00
  4.34217739e+00  1.79328335e+00  1.33982095e+00  4.34217739e+00  1.79328335e+00
  1.33982095e+00  4.34217739e+00  3.57586755e+00  3.26472884e+00  4.90908065e+00
  3.57586755e+00  3.26472884e+00  4.90908065e+00  3.57586755e+00  3.26472884e+00
  4.90908065e+00  3.57586755e+00  3.26472884e+00  4.90908065e+00  3.57586755e+00
  3.26472884e+00  4.90908065e+00  3.57586755e+00  3.26472884e+00  4.90908065e+00
  3.57586755e+00  3.26472884e+00  4.90908065e+00  3.57586755e+00  3.26472884e+00
  4.90908065e+00  5.47180657e+00  2.76343163e+00  4.23256487e+00  5.47180657e+00
  2.76343163e+00  4.23256487e+00  3.60178045e+00  3.41599981e+00  6.96551385e+00
  3.60178045e+00  3.41599981e+00  6.96551385e+00  3.00895943e+00  5.08626183e+00
  4.09448045e+00  3.00895943e+00  5.08626183e+00  4.09448045e+00  3.61370845e+00
  2.77654342e+00 -5.11982637e+00  3.61370845e+00  2.77654342e+00 -5.11982637e+00
  3.61370845e+00  2.77654342e+00 -5.11982637e+00  3.61370845e+00  2.77654342e+00
 -5.11982637e+00  3.61370845e+00  2.77654342e+00 -5.11982637e+00  3.61370845e+00
  2.77654342e+00 -5.11982637e+00  3.61370845e+00  2.77654342e+00 -5.11982637e+00
  3.61370845e+00  2.77654342e+00 -5.11982637e+00  3.61370845e+00  2.77654342e+00
 -5.11982637e+00  3.61370845e+00  2.77654342e+00 -5.11982637e+00 -4.67654831e+00
  1.06598791e+00  4.76203564e+00 -4.67654831e+00  1.06598791e+00  4.76203564e+00
 -4.67654831e+00  1.06598791e+00  4.76203564e+00 -4.67654831e+00  1.06598791e+00
  4.76203564e+00 -4.67654831e+00  1.06598791e+00  4.76203564e+00 -4.67654831e+00
  1.06598791e+00  4.76203564e+00 -4.67654831e+00  1.06598791e+00  4.76203564e+00
 -4.67654831e+00  1.06598791e+00  4.76203564e+00 -5.52307958e+00 -1.92591920e+00
  2.16450247e+00 -5.52307958e+00 -1.92591920e+00  2.16450247e+00 -3.71086244e+00
  1.36930012e+00  6.57348425e+00 -3.71086244e+00  1.36930012e+00  6.57348425e+00
 -6.66006066e+00  1.61130447e+00  4.98221286e+00 -6.66006066e+00  1.61130447e+00
  4.98221286e+00 -3.79392945e+00  2.31174092e+00  3.36636570e+00 -3.79392945e+00
  2.31174092e+00  3.36636570e+00
Total Energy                               R     -1.094196740071477e+03
Alpha Orbital Energies                     R   N=         321
 -1.01550211e+02 -1.91927895e+01 -1.91924048e+01 -1.43230000e+01 -1.02621849e+01
 -1.02578692e+01 -1.02528285e+01 -1.02507487e+01 -1.02501609e+01 -1.02213216e+01
 -1.02078124e+01 -1.02068932e+01 -1.02038732e+01 -1.01914616e+01 -1.01731547e+01
 -9.46479841e+00 -7.22904197e+00 -7.21921558e+00 -7.21873934e+00 -1.07787840e+00
 -1.07516614e+00 -8.93264634e-01 -8.88131115e-01 -8.43128004e-01 -7.78572265e-01
 -7.67662851e-01 -7.34760606e-01 -7.31402229e-01 -6.99315073e-01 -6.70232392e-01
 -6.22186207e-01 -5.95804478e-01 -5.80155888e-01 -5.35871563e-01 -5.29247115e-01
 -5.20241261e-01 -4.96642376e-01 -4.82369105e-01 -4.77567800e-01 -4.65580594e-01
 -4.56838821e-01 -4.54137297e-01 -4.39113439e-01 -4.28906629e-01 -4.21161326e-01
 -4.15798545e-01 -4.04518956e-01 -3.91817361e-01 -3.81388617e-01 -3.69102730e-01
 -3.63159963e-01 -3.53629914e-01 -3.48883490e-01 -3.41510560e-01 -3.36648780e-01
 -3.31853268e-01 -3.08780089e-01 -2.97905240e-01 -2.56762102e-01 -2.40783165e-01
 -2.10741975e-01 -2.66777005e-02 -4.99671915e-03  1.88073017e-03  5.67863513e-03