Generated by Psi4
     FORCE                           RHF                       TESTBAS
Number of atoms                            I               32
Charge                                     I                0
Multiplicity                               I                1
Number of electrons                        I              110
Number of alpha electrons                  I               55
Number of beta electrons                   I               55
Number of basis functions                  I              319
Number of independent functions            I              319
Atomic numbers                             I   N=          32
           8           6           6           6           6           6
           6           1           1           1           1           7
           6           6           6           6           6           6
           6           1           1           1           1           1
           1           1           1           1           1           1
           1           1
Nuclear charges                            R   N=          32
  8.00000000e+00  6.00000000e+00  6.00000000e+00  6.00000000e+00  6.00000000e+00
  6.00000000e+00  6.00000000e+00  1.00000000e+00  1.00000000e+00  1.00000000e+00
  1.00000000e+00  7.00000000e+00  6.00000000e+00  6.00000000e+00  6.00000000e+00
  6.00000000e+00  6.00000000e+00  6.00000000e+00  6.00000000e+00  1.00000000e+00
  1.00000000e+00  1.00000000e+00  1.00000000e+00  1.00000000e+00  1.00000000e+00
  1.00000000e+00  1.00000000e+00  1.00000000e+00  1.00000000e+00  1.00000000e+00
  1.00000000e+00  1.00000000e+00
Current cartesian coordinates              R   N=          96
  3.42386371e+00 -2.94441435e+00 -2.69998896e+00 -3.35237738e-01 -4.66008665e-01
 -1.75686841e+00  2.54342665e+00 -8.69287572e-01 -2.22293492e+00  4.21719495e+00
  1.48707674e+00 -2.31762596e+00  2.97805337e+00  3.88472434e+00 -1.26896112e+00
  3.59161603e-01  4.38218368e+00 -2.46888311e+00 -9.93315609e-01  1.93991540e+00
 -3.32581811e+00  5.54340245e-01  5.63123597e+00 -4.11293067e+00 -8.21404757e-01
  5.40005693e+00 -1.10506138e+00 -3.04525724e+00  2.18728230e+00 -3.32285664e+00
 -4.90003652e-01  1.51847494e+00 -5.29810114e+00 -1.90261410e+00 -2.53206870e+00
 -2.76166387e+00 -1.94475359e+00 -4.95247617e+00 -1.40111868e+00 -8.99367164e-01
 -1.24027845e-01  1.07216817e+00 -3.21669126e+00  9.13198022e-01  1.83947201e+00
 -3.80462138e+00  1.17869290e+00  4.39759032e+00 -2.08318787e+00  4.05068236e-01
  6.24728841e+00  2.17175999e-01 -6.54910617e-01  5.51068462e+00  7.94986726e-01
 -9.24587274e-01  2.94577304e+00 -4.59027452e+00  1.48806111e+00  4.27780493e-01
 -2.53825720e+00  6.15485675e-01  8.23931987e+00  1.56476338e+00 -1.28812205e+00
  6.92621312e+00 -1.37173479e+00 -2.85616209e+00 -4.58357675e+00  4.71711098e+00
  1.73883744e+00 -4.32196001e+00  5.99513190e+00  1.04094681e+00 -1.35086374e+00
  4.22979983e+00  5.50784703e+00 -1.57500513e+00  2.77159682e+00  3.69034985e+00
  7.81327452e-01  2.57876397e+00 -1.79521387e+00  2.41699886e+00 -5.61291958e+00
  1.98565588e+00  4.94592016e+00 -2.83961629e+00 -4.69889598e+00  4.44693995e-01
 -7.67138437e-02 -5.81396387e+00 -1.13118354e+00 -3.12475481e+00 -6.25754707e+00
 -2.49203733e+00
Integer atomic weights                     I   N=          32
          15          12          12          12          12          12
          12           1           1           1           1          14
          12          12          12          12          12          12
          12           1           1           1           1           1
           1           1           1           1           1           1
           1           1
Real atomic weights                        R   N=          32
  1.59949146e+01  1.20000000e+01  1.20000000e+01  1.20000000e+01  1.20000000e+01
  1.20000000e+01  1.20000000e+01  1.00782503e+00  1.00782503e+00  1.00782503e+00
  1.00782503e+00  1.40030740e+01  1.20000000e+01  1.20000000e+01  1.20000000e+01
  1.20000000e+01  1.20000000e+01  1.20000000e+01  1.20000000e+01  1.00782503e+00
  1.00782503e+00  1.00782503e+00  1.00782503e+00  1.00782503e+00  1.00782503e+00
  1.00782503e+00  1.00782503e+00  1.00782503e+00  1.00782503e+00  1.00782503e+00
  1.00782503e+00  1.00782503e+00
Number of primitive shells                 I              323
Number of contracted shells                I              154
Pure/Cartesian d shells                    I                1
Pure/Cartesian f shells                    I                1
Highest angular momentum                   I                2
Largest degree of contraction              I                6
Shell types                                I   N=         154
           0           0           1           0           1           2
           0           1           0           0           1           0
           1           2           0           1           0           0
           1           0           1           2           0           1
           0           0           1           0           1           2
           0           1           0           0           1           0
           1           2           0           1           0           0
           1           0           1           2           0           1
           0           0           1           0           1           2
           0           1           0           0           0           0
           0           0           0           0           0           0
           1           0           1           2           0           1
           0           0           1           0           1           2
           0           1           0           0           1           0
           1           2           0           1           0           0
           1           0           1           2           0           1
           0           0           1           0           1           2
           0           1           0           0           1           0
           1           2           0           1           0           0
           1           0           1           2           0           1
           0           0           1           0           1           2
           0           1           0           0           0           0
           0           0           0           0           0           0
           0           0           0           0           0           0
           0           0           0           0           0           0
           0           0           0           0
Number of primitives per shell             I   N=         154
           6           3           3           1           1           1
           1           1           6           3           3           1
           1           1           1           1           6           3
           3           1           1           1           1           1
           6           3           3           1           1           1
           1           1           6           3           3           1
           1           1           1           1           6           3
           3           1           1           1           1           1
           6           3           3           1           1           1
           1           1           3           1           3           1
           3           1           3           1           6           3
           3           1           1           1           1           1
           6           3           3           1           1           1
           1           1           6           3           3           1
           1           1           1           1           6           3
           3           1           1           1           1           1
           6           3           3           1           1           1
           1           1           6           3           3           1
           1           1           1           1           6           3
           3           1           1           1           1           1
           6           3           3           1           1           1
           1           1           3           1           3           1
           3           1           3           1           3           1
           3           1           3           1           3           1
           3           1           3           1           3           1
           3           1           3           1
Shell to atom map                          I   N=         154
           1           1           1           1           1           1
           1           1           2           2           2           2
           2           2           2           2           3           3
           3           3           3           3           3           3
           4           4           4           4           4           4
           4           4           5           5           5           5
           5           5           5           5           6           6
           6           6           6           6           6           6
           7           7           7           7           7           7
           7           7           8           8           9           9
          10          10          11          11          12          12
          12          12          12          12          12          12
          13          13          13          13          13          13
          13          13          14          14          14          14
          14          14          14          14          15          15
          15          15          15          15          15          15
          16          16          16          16          16          16
          16          16          17          17          17          17
          17          17          17          17          18          18
          18          18          18          18          18          18
          19          19          19          19          19          19
          19          19          20          20          21          21
          22          22          23          23          24          24
          25          25          26          26          27          27
          28          28          29          29          30          30
          31          31          32          32
Primitive exponents                        R   N=         323
  5.48467170e+03  8.25234950e+02  1.88046960e+02  5.29645000e+01  1.68975700e+01
  5.79963530e+00  1.55396160e+01  3.59993360e+00  1.01376180e+00  1.55396160e+01
  3.59993360e+00  1.01376180e+00  2.70005800e-01  2.70005800e-01  8.00000000e-01
  8.45000000e-02  8.45000000e-02  3.04752490e+03  4.57369510e+02  1.03948690e+02
  2.92101550e+01  9.28666300e+00  3.16392700e+00  7.86827240e+00  1.88128850e+00
  5.44249300e-01  7.86827240e+00  1.88128850e+00  5.44249300e-01  1.68714400e-01
  1.68714400e-01  8.00000000e-01  4.38000000e-02  4.38000000e-02  3.04752490e+03
  4.57369510e+02  1.03948690e+02  2.92101550e+01  9.28666300e+00  3.16392700e+00
  7.86827240e+00  1.88128850e+00  5.44249300e-01  7.86827240e+00  1.88128850e+00
  5.44249300e-01  1.68714400e-01  1.68714400e-01  8.00000000e-01  4.38000000e-02
  4.38000000e-02  3.04752490e+03  4.57369510e+02  1.03948690e+02  2.92101550e+01
  9.28666300e+00  3.16392700e+00  7.86827240e+00  1.88128850e+00  5.44249300e-01
  7.86827240e+00  1.88128850e+00  5.44249300e-01  1.68714400e-01  1.68714400e-01
  8.00000000e-01  4.38000000e-02  4.38000000e-02  3.04752490e+03  4.57369510e+02
  1.03948690e+02  2.92101550e+01  9.28666300e+00  3.16392700e+00  7.86827240e+00
  1.88128850e+00  5.44249300e-01  7.86827240e+00  1.88128850e+00  5.44249300e-01
  1.68714400e-01  1.68714400e-01  8.00000000e-01  4.38000000e-02  4.38000000e-02
  3.04752490e+03  4.57369510e+02  1.03948690e+02  2.92101550e+01  9.28666300e+00
  3.16392700e+00  7.86827240e+00  1.88128850e+00  5.44249300e-01  7.86827240e+00
  1.88128850e+00  5.44249300e-01  1.68714400e-01  1.68714400e-01  8.00000000e-01
  4.38000000e-02  4.38000000e-02  3.04752490e+03  4.57369510e+02  1.03948690e+02
  2.92101550e+01  9.28666300e+00  3.16392700e+00  7.86827240e+00  1.88128850e+00
  5.44249300e-01  7.86827240e+00  1.88128850e+00  5.44249300e-01  1.68714400e-01
  1.68714400e-01  8.00000000e-01  4.38000000e-02  4.38000000e-02  1.87311370e+01
  2.82539370e+00  6.40121700e-01  1.61277800e-01  1.87311370e+01  2.82539370e+00
  6.40121700e-01  1.61277800e-01  1.87311370e+01  2.82539370e+00  6.40121700e-01
  1.61277800e-01  1.87311370e+01  2.82539370e+00  6.40121700e-01  1.61277800e-01
  4.17351100e+03  6.27457900e+02  1.42902100e+02  4.02343300e+01  1.28202100e+01
  4.39043700e+00  1.16263580e+01  2.71628000e+00  7.72218000e-01  1.16263580e+01
  2.71628000e+00  7.72218000e-01  2.12031300e-01  2.12031300e-01  8.00000000e-01
  6.39000000e-02  6.39000000e-02  3.04752490e+03  4.57369510e+02  1.03948690e+02
  2.92101550e+01  9.28666300e+00  3.16392700e+00  7.86827240e+00  1.88128850e+00
  5.44249300e-01  7.86827240e+00  1.88128850e+00  5.44249300e-01  1.68714400e-01
  1.68714400e-01  8.00000000e-01  4.38000000e-02  4.38000000e-02  3.04752490e+03
  4.57369510e+02  1.03948690e+02  2.92101550e+01  9.28666300e+00  3.16392700e+00
  7.86827240e+00  1.88128850e+00  5.44249300e-01  7.86827240e+00  1.88128850e+00
  5.44249300e-01  1.68714400e-01  1.68714400e-01  8.00000000e-01  4.38000000e-02
  4.38000000e-02  3.04752490e+03  4.57369510e+02  1.03948690e+02  2.92101550e+01
  9.28666300e+00  3.16392700e+00  7.86827240e+00  1.88128850e+00  5.44249300e-01
  7.86827240e+00  1.88128850e+00  5.44249300e-01  1.68714400e-01  1.68714400e-01
  8.00000000e-01  4.38000000e-02  4.38000000e-02  3.04752490e+03  4.57369510e+02
  1.03948690e+02  2.92101550e+01  9.28666300e+00  3.16392700e+00  7.86827240e+00
  1.88128850e+00  5.44249300e-01  7.86827240e+00  1.88128850e+00  5.44249300e-01
  1.68714400e-01  1.68714400e-01  8.00000000e-01  4.38000000e-02  4.38000000e-02
  3.04752490e+03  4.57369510e+02  1.03948690e+02  2.92101550e+01  9.28666300e+00
  3.16392700e+00  7.86827240e+00  1.88128850e+00  5.44249300e-01  7.86827240e+00
  1.88128850e+00  5.44249300e-01  1.68714400e-01  1.68714400e-01  8.00000000e-01
  4.38000000e-02  4.38000000e-02  3.04752490e+03  4.57369510e+02  1.03948690e+02
  2.92101550e+01  9.28666300e+00  3.16392700e+00  7.86827240e+00  1.88128850e+00
  5.44249300e-01  7.86827240e+00  1.88128850e+00  5.44249300e-01  1.68714400e-01
  1.68714400e-01  8.00000000e-01  4.38000000e-02  4.38000000e-02  3.04752490e+03
  4.57369510e+02  1.03948690e+02  2.92101550e+01  9.28666300e+00  3.16392700e+00
  7.86827240e+00  1.88128850e+00  5.44249300e-01  7.86827240e+00  1.88128850e+00
  5.44249300e-01  1.68714400e-01  1.68714400e-01  8.00000000e-01  4.38000000e-02
  4.38000000e-02  1.87311370e+01  2.82539370e+00  6.40121700e-01  1.61277800e-01
  1.87311370e+01  2.82539370e+00  6.40121700e-01  1.61277800e-01  1.87311370e+01
  2.82539370e+00  6.40121700e-01  1.61277800e-01  1.87311370e+01  2.82539370e+00
  6.40121700e-01  1.61277800e-01  1.87311370e+01  2.82539370e+00  6.40121700e-01
  1.61277800e-01  1.87311370e+01  2.82539370e+00  6.40121700e-01  1.61277800e-01
  1.87311370e+01  2.82539370e+00  6.40121700e-01  1.61277800e-01  1.87311370e+01
  2.82539370e+00  6.40121700e-01  1.61277800e-01  1.87311370e+01  2.82539370e+00
  6.40121700e-01  1.61277800e-01  1.87311370e+01  2.82539370e+00  6.40121700e-01
  1.61277800e-01  1.87311370e+01  2.82539370e+00  6.40121700e-01  1.61277800e-01
  1.87311370e+01  2.82539370e+00  6.40121700e-01  1.61277800e-01  1.87311370e+01
  2.82539370e+00  6.40121700e-01  1.61277800e-01
Contraction coefficients                   R   N=         323
  1.83109981e-03  1.39500985e-02  6.84450927e-02  2.32714275e-01  4.70192950e-01
  3.58520862e-01 -1.10777504e-01 -1.48026305e-01  1.13076704e+00  7.08742995e-02
  3.39752798e-01  7.27158595e-01  1.00000000e+00  1.00000000e+00  1.00000000e+00
  1.00000000e+00  1.00000000e+00  1.83470016e-03  1.40373012e-02  6.88426061e-02
  2.32184421e-01  4.67941342e-01  3.62312032e-01 -1.19332409e-01 -1.60854212e-01
  1.14345648e+00  6.89990956e-02  3.16423980e-01  7.44308252e-01  1.00000000e+00
  1.00000000e+00  1.00000000e+00  1.00000000e+00  1.00000000e+00  1.83470016e-03
  1.40373012e-02  6.88426061e-02  2.32184421e-01  4.67941342e-01  3.62312032e-01
 -1.19332409e-01 -1.60854212e-01  1.14345648e+00  6.89990956e-02  3.16423980e-01
  7.44308252e-01  1.00000000e+00  1.00000000e+00  1.00000000e+00  1.00000000e+00
  1.00000000e+00  1.83470016e-03  1.40373012e-02  6.88426061e-02  2.32184421e-01
  4.67941342e-01  3.62312032e-01 -1.19332409e-01 -1.60854212e-01  1.14345648e+00
  6.89990956e-02  3.16423980e-01  7.44308252e-01  1.00000000e+00  1.00000000e+00
  1.00000000e+00  1.00000000e+00  1.00000000e+00  1.83470016e-03  1.40373012e-02
  6.88426061e-02  2.32184421e-01  4.67941342e-01  3.62312032e-01 -1.19332409e-01
 -1.60854212e-01  1.14345648e+00  6.89990956e-02  3.16423980e-01  7.44308252e-01
  1.00000000e+00  1.00000000e+00  1.00000000e+00  1.00000000e+00  1.00000000e+00
  1.83470016e-03  1.40373012e-02  6.88426061e-02  2.32184421e-01  4.67941342e-01
  3.62312032e-01 -1.19332409e-01 -1.60854212e-01  1.14345648e+00  6.89990956e-02
  3.16423980e-01  7.44308252e-01  1.00000000e+00  1.00000000e+00  1.00000000e+00
  1.00000000e+00  1.00000000e+00  1.83470016e-03  1.40373012e-02  6.88426061e-02
  2.32184421e-01  4.67941342e-01  3.62312032e-01 -1.19332409e-01 -1.60854212e-01
  1.14345648e+00  6.89990956e-02  3.16423980e-01  7.44308252e-01  1.00000000e+00
  1.00000000e+00  1.00000000e+00  1.00000000e+00  1.00000000e+00  3.34945995e-02
  2.34726947e-01  8.13757318e-01  1.00000000e+00  3.34945995e-02  2.34726947e-01
  8.13757318e-01  1.00000000e+00  3.34945995e-02  2.34726947e-01  8.13757318e-01
  1.00000000e+00  3.34945995e-02  2.34726947e-01  8.13757318e-01  1.00000000e+00
  1.83479944e-03  1.39949958e-02  6.85869792e-02  2.32240930e-01  4.69069858e-01
  3.60454891e-01 -1.14961023e-01 -1.69118034e-01  1.14585223e+00  6.75800232e-02
  3.23907111e-01  7.40895255e-01  1.00000000e+00  1.00000000e+00  1.00000000e+00
  1.00000000e+00  1.00000000e+00  1.83470016e-03  1.40373012e-02  6.88426061e-02
  2.32184421e-01  4.67941342e-01  3.62312032e-01 -1.19332409e-01 -1.60854212e-01
  1.14345648e+00  6.89990956e-02  3.16423980e-01  7.44308252e-01  1.00000000e+00
  1.00000000e+00  1.00000000e+00  1.00000000e+00  1.00000000e+00  1.83470016e-03
  1.40373012e-02  6.88426061e-02  2.32184421e-01  4.67941342e-01  3.62312032e-01
 -1.19332409e-01 -1.60854212e-01  1.14345648e+00  6.89990956e-02  3.16423980e-01
  7.44308252e-01  1.00000000e+00  1.00000000e+00  1.00000000e+00  1.00000000e+00
  1.00000000e+00  1.83470016e-03  1.40373012e-02  6.88426061e-02  2.32184421e-01
  4.67941342e-01  3.62312032e-01 -1.19332409e-01 -1.60854212e-01  1.14345648e+00
  6.89990956e-02  3.16423980e-01  7.44308252e-01  1.00000000e+00  1.00000000e+00
  1.00000000e+00  1.00000000e+00  1.00000000e+00  1.83470016e-03  1.40373012e-02
  6.88426061e-02  2.32184421e-01  4.67941342e-01  3.62312032e-01 -1.19332409e-01
 -1.60854212e-01  1.14345648e+00  6.89990956e-02  3.16423980e-01  7.44308252e-01
  1.00000000e+00  1.00000000e+00  1.00000000e+00  1.00000000e+00  1.00000000e+00
  1.83470016e-03  1.40373012e-02  6.88426061e-02  2.32184421e-01  4.67941342e-01
  3.62312032e-01 -1.19332409e-01 -1.60854212e-01  1.14345648e+00  6.89990956e-02
  3.16423980e-01  7.44308252e-01  1.00000000e+00  1.00000000e+00  1.00000000e+00
  1.00000000e+00  1.00000000e+00  1.83470016e-03  1.40373012e-02  6.88426061e-02
  2.32184421e-01  4.67941342e-01  3.62312032e-01 -1.19332409e-01 -1.60854212e-01
  1.14345648e+00  6.89990956e-02  3.16423980e-01  7.44308252e-01  1.00000000e+00
  1.00000000e+00  1.00000000e+00  1.00000000e+00  1.00000000e+00  1.83470016e-03
  1.40373012e-02  6.88426061e-02  2.32184421e-01  4.67941342e-01  3.62312032e-01
 -1.19332409e-01 -1.60854212e-01  1.14345648e+00  6.89990956e-02  3.16423980e-01
  7.44308252e-01  1.00000000e+00  1.00000000e+00  1.00000000e+00  1.00000000e+00
  1.00000000e+00  3.34945995e-02  2.34726947e-01  8.13757318e-01  1.00000000e+00
  3.34945995e-02  2.34726947e-01  8.13757318e-01  1.00000000e+00  3.34945995e-02
  2.34726947e-01  8.13757318e-01  1.00000000e+00  3.34945995e-02  2.34726947e-01
  8.13757318e-01  1.00000000e+00  3.34945995e-02  2.34726947e-01  8.13757318e-01
  1.00000000e+00  3.34945995e-02  2.34726947e-01  8.13757318e-01  1.00000000e+00
  3.34945995e-02  2.34726947e-01  8.13757318e-01  1.00000000e+00  3.34945995e-02
  2.34726947e-01  8.13757318e-01  1.00000000e+00  3.34945995e-02  2.34726947e-01
  8.13757318e-01  1.00000000e+00  3.34945995e-02  2.34726947e-01  8.13757318e-01
  1.00000000e+00  3.34945995e-02  2.34726947e-01  8.13757318e-01  1.00000000e+00
  3.34945995e-02  2.34726947e-01  8.13757318e-01  1.00000000e+00  3.34945995e-02
  2.34726947e-01  8.13757318e-01  1.00000000e+00
Coordinates of each shell                  R   N=         462
  3.42386371e+00 -2.94441435e+00 -2.69998896e+00  3.42386371e+00 -2.94441435e+00
 -2.69998896e+00  3.42386371e+00 -2.94441435e+00 -2.69998896e+00  3.42386371e+00
 -2.94441435e+00 -2.69998896e+00  3.42386371e+00 -2.94441435e+00 -2.69998896e+00
  3.42386371e+00 -2.94441435e+00 -2.69998896e+00  3.42386371e+00 -2.94441435e+00
 -2.69998896e+00  3.42386371e+00 -2.94441435e+00 -2.69998896e+00 -3.35237738e-01
 -4.66008665e-01 -1.75686841e+00 -3.35237738e-01 -4.66008665e-01 -1.75686841e+00
 -3.35237738e-01 -4.66008665e-01 -1.75686841e+00 -3.35237738e-01 -4.66008665e-01
 -1.75686841e+00 -3.35237738e-01 -4.66008665e-01 -1.75686841e+00 -3.35237738e-01
 -4.66008665e-01 -1.75686841e+00 -3.35237738e-01 -4.66008665e-01 -1.75686841e+00
 -3.35237738e-01 -4.66008665e-01 -1.75686841e+00  2.54342665e+00 -8.69287572e-01
 -2.22293492e+00  2.54342665e+00 -8.69287572e-01 -2.22293492e+00  2.54342665e+00
 -8.69287572e-01 -2.22293492e+00  2.54342665e+00 -8.69287572e-01 -2.22293492e+00
  2.54342665e+00 -8.69287572e-01 -2.22293492e+00  2.54342665e+00 -8.69287572e-01
 -2.22293492e+00  2.54342665e+00 -8.69287572e-01 -2.22293492e+00  2.54342665e+00
 -8.69287572e-01 -2.22293492e+00  4.21719495e+00  1.48707674e+00 -2.31762596e+00
  4.21719495e+00  1.48707674e+00 -2.31762596e+00  4.21719495e+00  1.48707674e+00
 -2.31762596e+00  4.21719495e+00  1.48707674e+00 -2.31762596e+00  4.21719495e+00
  1.48707674e+00 -2.31762596e+00  4.21719495e+00  1.48707674e+00 -2.31762596e+00
  4.21719495e+00  1.48707674e+00 -2.31762596e+00  4.21719495e+00  1.48707674e+00
 -2.31762596e+00  2.97805337e+00  3.88472434e+00 -1.26896112e+00  2.97805337e+00
  3.88472434e+00 -1.26896112e+00  2.97805337e+00  3.88472434e+00 -1.26896112e+00
  2.97805337e+00  3.88472434e+00 -1.26896112e+00  2.97805337e+00  3.88472434e+00
 -1.26896112e+00  2.97805337e+00  3.88472434e+00 -1.26896112e+00  2.97805337e+00
  3.88472434e+00 -1.26896112e+00  2.97805337e+00  3.88472434e+00 -1.26896112e+00
  3.59161603e-01  4.38218368e+00 -2.46888311e+00  3.59161603e-01  4.38218368e+00
 -2.46888311e+00  3.59161603e-01  4.38218368e+00 -2.46888311e+00  3.59161603e-01
  4.38218368e+00 -2.46888311e+00  3.59161603e-01  4.38218368e+00 -2.46888311e+00
  3.59161603e-01  4.38218368e+00 -2.46888311e+00  3.59161603e-01  4.38218368e+00
 -2.46888311e+00  3.59161603e-01  4.38218368e+00 -2.46888311e+00 -9.93315609e-01
  1.93991540e+00 -3.32581811e+00 -9.93315609e-01  1.93991540e+00 -3.32581811e+00
 -9.93315609e-01  1.93991540e+00 -3.32581811e+00 -9.93315609e-01  1.93991540e+00
 -3.32581811e+00 -9.93315609e-01  1.93991540e+00 -3.32581811e+00 -9.93315609e-01
  1.93991540e+00 -3.32581811e+00 -9.93315609e-01  1.93991540e+00 -3.32581811e+00
 -9.93315609e-01  1.93991540e+00 -3.32581811e+00  5.54340245e-01  5.63123597e+00
 -4.11293067e+00  5.54340245e-01  5.63123597e+00 -4.11293067e+00 -8.21404757e-01
  5.40005693e+00 -1.10506138e+00 -8.21404757e-01  5.40005693e+00 -1.10506138e+00
 -3.04525724e+00  2.18728230e+00 -3.32285664e+00 -3.04525724e+00  2.18728230e+00
 -3.32285664e+00 -4.90003652e-01  1.51847494e+00 -5.29810114e+00 -4.90003652e-01
  1.51847494e+00 -5.29810114e+00 -1.90261410e+00 -2.53206870e+00 -2.76166387e+00
 -1.90261410e+00 -2.53206870e+00 -2.76166387e+00 -1.90261410e+00 -2.53206870e+00
 -2.76166387e+00 -1.90261410e+00 -2.53206870e+00 -2.76166387e+00 -1.90261410e+00
 -2.53206870e+00 -2.76166387e+00 -1.90261410e+00 -2.53206870e+00 -2.76166387e+00
 -1.90261410e+00 -2.53206870e+00 -2.76166387e+00 -1.90261410e+00 -2.53206870e+00
 -2.76166387e+00 -1.94475359e+00 -4.95247617e+00 -1.40111868e+00 -1.94475359e+00
 -4.95247617e+00 -1.40111868e+00 -1.94475359e+00 -4.95247617e+00 -1.40111868e+00
 -1.94475359e+00 -4.95247617e+00 -1.40111868e+00 -1.94475359e+00 -4.95247617e+00
 -1.40111868e+00 -1.94475359e+00 -4.95247617e+00 -1.40111868e+00 -1.94475359e+00
 -4.95247617e+00 -1.40111868e+00 -1.94475359e+00 -4.95247617e+00 -1.40111868e+00
 -8.99367164e-01 -1.24027845e-01  1.07216817e+00 -8.99367164e-01 -1.24027845e-01
  1.07216817e+00 -8.99367164e-01 -1.24027845e-01  1.07216817e+00 -8.99367164e-01
 -1.24027845e-01  1.07216817e+00 -8.99367164e-01 -1.24027845e-01  1.07216817e+00
 -8.99367164e-01 -1.24027845e-01  1.07216817e+00 -8.99367164e-01 -1.24027845e-01
  1.07216817e+00 -8.99367164e-01 -1.24027845e-01  1.07216817e+00 -3.21669126e+00
  9.13198022e-01  1.83947201e+00 -3.21669126e+00  9.13198022e-01  1.83947201e+00
 -3.21669126e+00  9.13198022e-01  1.83947201e+00 -3.21669126e+00  9.13198022e-01
  1.83947201e+00 -3.21669126e+00  9.13198022e-01  1.83947201e+00 -3.21669126e+00
  9.13198022e-01  1.83947201e+00 -3.21669126e+00  9.13198022e-01  1.83947201e+00
 -3.21669126e+00  9.13198022e-01  1.83947201e+00 -3.80462138e+00  1.17869290e+00
  4.39759032e+00 -3.80462138e+00  1.17869290e+00  4.39759032e+00 -3.80462138e+00
  1.17869290e+00  4.39759032e+00 -3.80462138e+00  1.17869290e+00  4.39759032e+00
 -3.80462138e+00  1.17869290e+00  4.39759032e+00 -3.80462138e+00  1.17869290e+00
  4.39759032e+00 -3.80462138e+00  1.17869290e+00  4.39759032e+00 -3.80462138e+00
  1.17869290e+00  4.39759032e+00 -2.08318787e+00  4.05068236e-01  6.24728841e+00
 -2.08318787e+00  4.05068236e-01  6.24728841e+00 -2.08318787e+00  4.05068236e-01
  6.24728841e+00 -2.08318787e+00  4.05068236e-01  6.24728841e+00 -2.08318787e+00
  4.05068236e-01  6.24728841e+00 -2.08318787e+00  4.05068236e-01  6.24728841e+00
 -2.08318787e+00  4.05068236e-01  6.24728841e+00 -2.08318787e+00  4.05068236e-01
  6.24728841e+00  2.17175999e-01 -6.54910617e-01  5.51068462e+00  2.17175999e-01
 -6.54910617e-01  5.51068462e+00  2.17175999e-01 -6.54910617e-01  5.51068462e+00
  2.17175999e-01 -6.54910617e-01  5.51068462e+00  2.17175999e-01 -6.54910617e-01
  5.51068462e+00  2.17175999e-01 -6.54910617e-01  5.51068462e+00  2.17175999e-01
 -6.54910617e-01  5.51068462e+00  2.17175999e-01 -6.54910617e-01  5.51068462e+00
  7.94986726e-01 -9.24587274e-01  2.94577304e+00  7.94986726e-01 -9.24587274e-01
  2.94577304e+00  7.94986726e-01 -9.24587274e-01  2.94577304e+00  7.94986726e-01
 -9.24587274e-01  2.94577304e+00  7.94986726e-01 -9.24587274e-01  2.94577304e+00
  7.94986726e-01 -9.24587274e-01  2.94577304e+00  7.94986726e-01 -9.24587274e-01
  2.94577304e+00  7.94986726e-01 -9.24587274e-01  2.94577304e+00 -4.59027452e+00
  1.48806111e+00  4.27780493e-01 -4.59027452e+00  1.48806111e+00  4.27780493e-01
 -2.53825720e+00  6.15485675e-01  8.23931987e+00 -2.53825720e+00  6.15485675e-01
  8.23931987e+00  1.56476338e+00 -1.28812205e+00  6.92621312e+00  1.56476338e+00
 -1.28812205e+00  6.92621312e+00 -1.37173479e+00 -2.85616209e+00 -4.58357675e+00
 -1.37173479e+00 -2.85616209e+00 -4.58357675e+00  4.71711098e+00  1.73883744e+00
 -4.32196001e+00  4.71711098e+00  1.73883744e+00 -4.32196001e+00  5.99513190e+00
  1.04094681e+00 -1.35086374e+00  5.99513190e+00  1.04094681e+00 -1.35086374e+00
  4.22979983e+00  5.50784703e+00 -1.57500513e+00  4.22979983e+00  5.50784703e+00
 -1.57500513e+00  2.77159682e+00  3.69034985e+00  7.81327452e-01  2.77159682e+00
  3.69034985e+00  7.81327452e-01  2.57876397e+00 -1.79521387e+00  2.41699886e+00
  2.57876397e+00 -1.79521387e+00  2.41699886e+00 -5.61291958e+00  1.98565588e+00
  4.94592016e+00 -5.61291958e+00  1.98565588e+00  4.94592016e+00 -2.83961629e+00
 -4.69889598e+00  4.44693995e-01 -2.83961629e+00 -4.69889598e+00  4.44693995e-01
 -7.67138437e-02 -5.81396387e+00 -1.13118354e+00 -7.67138437e-02 -5.81396387e+00
 -1.13118354e+00 -3.12475481e+00 -6.25754707e+00 -2.49203733e+00 -3.12475481e+00
 -6.25754707e+00 -2.49203733e+00
Total Energy                               R     -6.356015014745365e+02
Alpha Orbital Energies                     R   N=         319
 -1.91517089e+01 -1.43262195e+01 -1.02804498e+01 -1.02400188e+01 -1.02112563e+01
 -1.02030565e+01 -1.02027356e+01 -1.02022721e+01 -1.02014811e+01 -1.02002260e+01
 -1.01999877e+01 -1.01965395e+01 -1.01938639e+01 -1.01935770e+01 -1.01931972e+01
 -1.05012301e+00 -9.12102453e-01 -8.62303796e-01 -8.27359943e-01 -7.71405141e-01
 -7.56861489e-01 -7.43813036e-01 -7.19578484e-01 -6.56843711e-01 -6.40855807e-01
 -6.18824499e-01 -5.92225619e-01 -5.86922168e-01 -5.45371438e-01 -5.15616442e-01
 -4.91797859e-01 -4.82053858e-01 -4.69624922e-01 -4.63137567e-01 -4.57584008e-01
 -4.42991696e-01 -4.36947241e-01 -4.31620916e-01 -4.24321799e-01 -4.09194116e-01
 -4.06685846e-01 -3.93159210e-01 -3.85779196e-01 -3.74259547e-01 -3.69415154e-01
 -3.66626856e-01 -3.55007915e-01 -3.49003671e-01 -3.38182148e-01 -3.30047298e-01
 -3.23521930e-01 -2.65020677e-01 -2.62014432e-01 -2.56669380e-01 -2.18415932e-01
 -3.58594448e-02 -2.19345648e-02 -1.68518580e-02 -3.12892131e-03  6.74867201e-03
  1.43749902e-02  1.67214865e-02  2.95583286e-02  3.30596426e-02  3.55801067e-02
  3.90859883e-02  4.66497564e-02  5.72928425e-02  5.81680699e-02  6.23206881e-02
  6.82232521e-02  7.54875707e-02  8.10590235e-02  8.64488659e-02  8.85127714e-02