Generated by Psi4
     FORCE                           RHF                       TESTBAS
Number of atoms                            I               38
Charge                                     I                0
Multiplicity                               I                1
Number of electrons                        I              136
Number of alpha electrons                  I               68
Number of beta electrons                   I               68
Number of basis functions                  I              399
Number of independent functions            I              399
Atomic numbers                             I   N=          38
           6           6           6           6           6           6
           6           1           1           1           1           1
           6           6           6           6           6           6
           1           1           1           1           1           6
           8           1           6           6           1           1
           6           7           1           1           1           1
           1           1
Nuclear charges                            R   N=          38
  6.00000000e+00  6.00000000e+00  6.00000000e+00  6.00000000e+00  6.00000000e+00
  6.00000000e+00  6.00000000e+00  1.00000000e+00  1.00000000e+00  1.00000000e+00
  1.00000000e+00  1.00000000e+00  6.00000000e+00  6.00000000e+00  6.00000000e+00
  6.00000000e+00  6.00000000e+00  6.00000000e+00  1.00000000e+00  1.00000000e+00
  1.00000000e+00  1.00000000e+00  1.00000000e+00  6.00000000e+00  8.00000000e+00
  1.00000000e+00  6.00000000e+00  6.00000000e+00  1.00000000e+00  1.00000000e+00
  6.00000000e+00  7.00000000e+00  1.00000000e+00  1.00000000e+00  1.00000000e+00
  1.00000000e+00  1.00000000e+00  1.00000000e+00
Current cartesian coordinates              R   N=         114
 -7.63687814e-01 -2.33602052e-01 -3.82031708e-01 -7.16719592e-01  4.38219746e-01
  2.46994383e+00  1.51422139e+00  2.76039340e-01  3.89948875e+00 -2.92457652e+00
  1.24436111e+00  3.68892052e+00 -2.91077638e+00  1.85755650e+00  6.26025338e+00
 -6.85275716e-01  1.67357596e+00  7.66471566e+00  1.53293839e+00  8.81554623e-01
  6.46797450e+00 -4.65476661e+00  1.40551170e+00  2.60196110e+00 -4.64877109e+00
  2.48357881e+00  7.16076111e+00  3.27360904e+00 -3.00118950e-01  3.01208037e+00
 -6.72505855e-01  2.14948319e+00  9.66308454e+00  3.28600851e+00  7.41872668e-01
  7.53102533e+00  7.60879408e-01  1.73005285e+00 -1.87163127e+00  3.39387569e+00
  1.57044959e+00 -2.13093036e+00  4.74527784e+00  3.42938073e+00 -3.43215324e+00
  3.48453868e+00  5.48892327e+00 -4.49736657e+00  8.60899540e-01  5.66241499e+00
 -4.25500681e+00 -4.87019463e-01  3.80093067e+00 -2.95655046e+00  4.42454825e+00
 -1.66293353e-02 -1.33505759e+00  6.78471095e+00  3.25821241e+00 -3.61661803e+00
  4.53361959e+00  6.93634659e+00 -5.50962933e+00 -1.46834982e-01  7.25075411e+00
 -5.08231491e+00 -2.52528990e+00  3.93338044e+00 -2.79053758e+00  2.11963392e-01
 -2.99200133e+00 -7.84485881e-01 -3.29427843e+00 -1.66226318e-01 -1.30084266e+00
 -3.99028845e+00 -1.81874614e+00 -8.27722820e-01  3.93588681e-01 -3.84303997e+00
 -3.59126942e+00 -9.89289280e-01 -6.42644787e+00 -3.72224461e+00  2.37403663e+00
 -4.00591795e+00 -4.16321315e+00 -4.92462635e-01 -2.45468734e+00 -4.83682632e+00
 -1.31881948e+00 -7.19282690e+00 -9.43710929e-01 -1.66290730e+00 -4.74315163e+00
  3.12058168e-01  2.06305878e+00 -3.21182849e+00  1.34071176e-01 -1.51379602e+00
 -4.85313054e+00  2.22711173e+00 -2.95815296e+00 -8.41337845e+00 -6.14012203e-01
  3.80632309e-01 -8.19512483e+00 -2.59244037e-01  5.97523531e-02 -7.84363767e+00
 -4.80441800e+00 -2.84519412e+00 -6.20503573e+00 -4.61248745e+00
Integer atomic weights                     I   N=          38
          12          12          12          12          12          12
          12           1           1           1           1           1
          12          12          12          12          12          12
           1           1           1           1           1          12
          15           1          12          12           1           1
          12          14           1           1           1           1
           1           1
Real atomic weights                        R   N=          38
  1.20000000e+01  1.20000000e+01  1.20000000e+01  1.20000000e+01  1.20000000e+01
  1.20000000e+01  1.20000000e+01  1.00782503e+00  1.00782503e+00  1.00782503e+00
  1.00782503e+00  1.00782503e+00  1.20000000e+01  1.20000000e+01  1.20000000e+01
  1.20000000e+01  1.20000000e+01  1.20000000e+01  1.00782503e+00  1.00782503e+00
  1.00782503e+00  1.00782503e+00  1.00782503e+00  1.20000000e+01  1.59949146e+01
  1.00782503e+00  1.20000000e+01  1.20000000e+01  1.00782503e+00  1.00782503e+00
  1.20000000e+01  1.40030740e+01  1.00782503e+00  1.00782503e+00  1.00782503e+00
  1.00782503e+00  1.00782503e+00  1.00782503e+00
Number of primitive shells                 I              399
Number of contracted shells                I              190
Pure/Cartesian d shells                    I                1
Pure/Cartesian f shells                    I                1
Highest angular momentum                   I                2
Largest degree of contraction              I                6
Shell types                                I   N=         190
           0           0           1           0           1           2
           0           1           0           0           1           0
           1           2           0           1           0           0
           1           0           1           2           0           1
           0           0           1           0           1           2
           0           1           0           0           1           0
           1           2           0           1           0           0
           1           0           1           2           0           1
           0           0           1           0           1           2
           0           1           0           0           0           0
           0           0           0           0           0           0
           0           0           1           0           1           2
           0           1           0           0           1           0
           1           2           0           1           0           0
           1           0           1           2           0           1
           0           0           1           0           1           2
           0           1           0           0           1           0
           1           2           0           1           0           0
           1           0           1           2           0           1
           0           0           0           0           0           0
           0           0           0           0           0           0
           1           0           1           2           0           1
           0           0           1           0           1           2
           0           1           0           0           0           0
           1           0           1           2           0           1
           0           0           1           0           1           2
           0           1           0           0           0           0
           0           0           1           0           1           2
           0           1           0           0           1           0
           1           2           0           1           0           0
           0           0           0           0           0           0
           0           0           0           0
Number of primitives per shell             I   N=         190
           6           3           3           1           1           1
           1           1           6           3           3           1
           1           1           1           1           6           3
           3           1           1           1           1           1
           6           3           3           1           1           1
           1           1           6           3           3           1
           1           1           1           1           6           3
           3           1           1           1           1           1
           6           3           3           1           1           1
           1           1           3           1           3           1
           3           1           3           1           3           1
           6           3           3           1           1           1
           1           1           6           3           3           1
           1           1           1           1           6           3
           3           1           1           1           1           1
           6           3           3           1           1           1
           1           1           6           3           3           1
           1           1           1           1           6           3
           3           1           1           1           1           1
           3           1           3           1           3           1
           3           1           3           1           6           3
           3           1           1           1           1           1
           6           3           3           1           1           1
           1           1           3           1           6           3
           3           1           1           1           1           1
           6           3           3           1           1           1
           1           1           3           1           3           1
           6           3           3           1           1           1
           1           1           6           3           3           1
           1           1           1           1           3           1
           3           1           3           1           3           1
           3           1           3           1
Shell to atom map                          I   N=         190
           1           1           1           1           1           1
           1           1           2           2           2           2
           2           2           2           2           3           3
           3           3           3           3           3           3
           4           4           4           4           4           4
           4           4           5           5           5           5
           5           5           5           5           6           6
           6           6           6           6           6           6
           7           7           7           7           7           7
           7           7           8           8           9           9
          10          10          11          11          12          12
          13          13          13          13          13          13
          13          13          14          14          14          14
          14          14          14          14          15          15
          15          15          15          15          15          15
          16          16          16          16          16          16
          16          16          17          17          17          17
          17          17          17          17          18          18
          18          18          18          18          18          18
          19          19          20          20          21          21
          22          22          23          23          24          24
          24          24          24          24          24          24
          25          25          25          25          25          25
          25          25          26          26          27          27
          27          27          27          27          27          27
          28          28          28          28          28          28
          28          28          29          29          30          30
          31          31          31          31          31          31
          31          31          32          32          32          32
          32          32          32          32          33          33
          34          34          35          35          36          36
          37          37          38          38
Primitive exponents                        R   N=         399
  3.04752490e+03  4.57369510e+02  1.03948690e+02  2.92101550e+01  9.28666300e+00
  3.16392700e+00  7.86827240e+00  1.88128850e+00  5.44249300e-01  7.86827240e+00
  1.88128850e+00  5.44249300e-01  1.68714400e-01  1.68714400e-01  8.00000000e-01
  4.38000000e-02  4.38000000e-02  3.04752490e+03  4.57369510e+02  1.03948690e+02
  2.92101550e+01  9.28666300e+00  3.16392700e+00  7.86827240e+00  1.88128850e+00
  5.44249300e-01  7.86827240e+00  1.88128850e+00  5.44249300e-01  1.68714400e-01
  1.68714400e-01  8.00000000e-01  4.38000000e-02  4.38000000e-02  3.04752490e+03
  4.57369510e+02  1.03948690e+02  2.92101550e+01  9.28666300e+00  3.16392700e+00
  7.86827240e+00  1.88128850e+00  5.44249300e-01  7.86827240e+00  1.88128850e+00
  5.44249300e-01  1.68714400e-01  1.68714400e-01  8.00000000e-01  4.38000000e-02
  4.38000000e-02  3.04752490e+03  4.57369510e+02  1.03948690e+02  2.92101550e+01
  9.28666300e+00  3.16392700e+00  7.86827240e+00  1.88128850e+00  5.44249300e-01
  7.86827240e+00  1.88128850e+00  5.44249300e-01  1.68714400e-01  1.68714400e-01
  8.00000000e-01  4.38000000e-02  4.38000000e-02  3.04752490e+03  4.57369510e+02
  1.03948690e+02  2.92101550e+01  9.28666300e+00  3.16392700e+00  7.86827240e+00
  1.88128850e+00  5.44249300e-01  7.86827240e+00  1.88128850e+00  5.44249300e-01
  1.68714400e-01  1.68714400e-01  8.00000000e-01  4.38000000e-02  4.38000000e-02
  3.04752490e+03  4.57369510e+02  1.03948690e+02  2.92101550e+01  9.28666300e+00
  3.16392700e+00  7.86827240e+00  1.88128850e+00  5.44249300e-01  7.86827240e+00
  1.88128850e+00  5.44249300e-01  1.68714400e-01  1.68714400e-01  8.00000000e-01
  4.38000000e-02  4.38000000e-02  3.04752490e+03  4.57369510e+02  1.03948690e+02
  2.92101550e+01  9.28666300e+00  3.16392700e+00  7.86827240e+00  1.88128850e+00
  5.44249300e-01  7.86827240e+00  1.88128850e+00  5.44249300e-01  1.68714400e-01
  1.68714400e-01  8.00000000e-01  4.38000000e-02  4.38000000e-02  1.87311370e+01
  2.82539370e+00  6.40121700e-01  1.61277800e-01  1.87311370e+01  2.82539370e+00
  6.40121700e-01  1.61277800e-01  1.87311370e+01  2.82539370e+00  6.40121700e-01
  1.61277800e-01  1.87311370e+01  2.82539370e+00  6.40121700e-01  1.61277800e-01
  1.87311370e+01  2.82539370e+00  6.40121700e-01  1.61277800e-01  3.04752490e+03
  4.57369510e+02  1.03948690e+02  2.92101550e+01  9.28666300e+00  3.16392700e+00
  7.86827240e+00  1.88128850e+00  5.44249300e-01  7.86827240e+00  1.88128850e+00
  5.44249300e-01  1.68714400e-01  1.68714400e-01  8.00000000e-01  4.38000000e-02
  4.38000000e-02  3.04752490e+03  4.57369510e+02  1.03948690e+02  2.92101550e+01
  9.28666300e+00  3.16392700e+00  7.86827240e+00  1.88128850e+00  5.44249300e-01
  7.86827240e+00  1.88128850e+00  5.44249300e-01  1.68714400e-01  1.68714400e-01
  8.00000000e-01  4.38000000e-02  4.38000000e-02  3.04752490e+03  4.57369510e+02
  1.03948690e+02  2.92101550e+01  9.28666300e+00  3.16392700e+00  7.86827240e+00
  1.88128850e+00  5.44249300e-01  7.86827240e+00  1.88128850e+00  5.44249300e-01
  1.68714400e-01  1.68714400e-01  8.00000000e-01  4.38000000e-02  4.38000000e-02
  3.04752490e+03  4.57369510e+02  1.03948690e+02  2.92101550e+01  9.28666300e+00
  3.16392700e+00  7.86827240e+00  1.88128850e+00  5.44249300e-01  7.86827240e+00
  1.88128850e+00  5.44249300e-01  1.68714400e-01  1.68714400e-01  8.00000000e-01
  4.38000000e-02  4.38000000e-02  3.04752490e+03  4.57369510e+02  1.03948690e+02
  2.92101550e+01  9.28666300e+00  3.16392700e+00  7.86827240e+00  1.88128850e+00
  5.44249300e-01  7.86827240e+00  1.88128850e+00  5.44249300e-01  1.68714400e-01
  1.68714400e-01  8.00000000e-01  4.38000000e-02  4.38000000e-02  3.04752490e+03
  4.57369510e+02  1.03948690e+02  2.92101550e+01  9.28666300e+00  3.16392700e+00
  7.86827240e+00  1.88128850e+00  5.44249300e-01  7.86827240e+00  1.88128850e+00
  5.44249300e-01  1.68714400e-01  1.68714400e-01  8.00000000e-01  4.38000000e-02
  4.38000000e-02  1.87311370e+01  2.82539370e+00  6.40121700e-01  1.61277800e-01
  1.87311370e+01  2.82539370e+00  6.40121700e-01  1.61277800e-01  1.87311370e+01
  2.82539370e+00  6.40121700e-01  1.61277800e-01  1.87311370e+01  2.82539370e+00
  6.40121700e-01  1.61277800e-01  1.87311370e+01  2.82539370e+00  6.40121700e-01
  1.61277800e-01  3.04752490e+03  4.57369510e+02  1.03948690e+02  2.92101550e+01
  9.28666300e+00  3.16392700e+00  7.86827240e+00  1.88128850e+00  5.44249300e-01
  7.86827240e+00  1.88128850e+00  5.44249300e-01  1.68714400e-01  1.68714400e-01
  8.00000000e-01  4.38000000e-02  4.38000000e-02  5.48467170e+03  8.25234950e+02
  1.88046960e+02  5.29645000e+01  1.68975700e+01  5.79963530e+00  1.55396160e+01
  3.59993360e+00  1.01376180e+00  1.55396160e+01  3.59993360e+00  1.01376180e+00
  2.70005800e-01  2.70005800e-01  8.00000000e-01  8.45000000e-02  8.45000000e-02
  1.87311370e+01  2.82539370e+00  6.40121700e-01  1.61277800e-01  3.04752490e+03
  4.57369510e+02  1.03948690e+02  2.92101550e+01  9.28666300e+00  3.16392700e+00
  7.86827240e+00  1.88128850e+00  5.44249300e-01  7.86827240e+00  1.88128850e+00
  5.44249300e-01  1.68714400e-01  1.68714400e-01  8.00000000e-01  4.38000000e-02
  4.38000000e-02  3.04752490e+03  4.57369510e+02  1.03948690e+02  2.92101550e+01
  9.28666300e+00  3.16392700e+00  7.86827240e+00  1.88128850e+00  5.44249300e-01
  7.86827240e+00  1.88128850e+00  5.44249300e-01  1.68714400e-01  1.68714400e-01
  8.00000000e-01  4.38000000e-02  4.38000000e-02  1.87311370e+01  2.82539370e+00
  6.40121700e-01  1.61277800e-01  1.87311370e+01  2.82539370e+00  6.40121700e-01
  1.61277800e-01  3.04752490e+03  4.57369510e+02  1.03948690e+02  2.92101550e+01
  9.28666300e+00  3.16392700e+00  7.86827240e+00  1.88128850e+00  5.44249300e-01
  7.86827240e+00  1.88128850e+00  5.44249300e-01  1.68714400e-01  1.68714400e-01
  8.00000000e-01  4.38000000e-02  4.38000000e-02  4.17351100e+03  6.27457900e+02
  1.42902100e+02  4.02343300e+01  1.28202100e+01  4.39043700e+00  1.16263580e+01
  2.71628000e+00  7.72218000e-01  1.16263580e+01  2.71628000e+00  7.72218000e-01
  2.12031300e-01  2.12031300e-01  8.00000000e-01  6.39000000e-02  6.39000000e-02
  1.87311370e+01  2.82539370e+00  6.40121700e-01  1.61277800e-01  1.87311370e+01
  2.82539370e+00  6.40121700e-01  1.61277800e-01  1.87311370e+01  2.82539370e+00
  6.40121700e-01  1.61277800e-01  1.87311370e+01  2.82539370e+00  6.40121700e-01
  1.61277800e-01  1.87311370e+01  2.82539370e+00  6.40121700e-01  1.61277800e-01
  1.87311370e+01  2.82539370e+00  6.40121700e-01  1.61277800e-01
Contraction coefficients                   R   N=         399
  1.83470016e-03  1.40373012e-02  6.88426061e-02  2.32184421e-01  4.67941342e-01
  3.62312032e-01 -1.19332409e-01 -1.60854212e-01  1.14345648e+00  6.89990956e-02
  3.16423980e-01  7.44308252e-01  1.00000000e+00  1.00000000e+00  1.00000000e+00
  1.00000000e+00  1.00000000e+00  1.83470016e-03  1.40373012e-02  6.88426061e-02
  2.32184421e-01  4.67941342e-01  3.62312032e-01 -1.19332409e-01 -1.60854212e-01
  1.14345648e+00  6.89990956e-02  3.16423980e-01  7.44308252e-01  1.00000000e+00
  1.00000000e+00  1.00000000e+00  1.00000000e+00  1.00000000e+00  1.83470016e-03
  1.40373012e-02  6.88426061e-02  2.32184421e-01  4.67941342e-01  3.62312032e-01
 -1.19332409e-01 -1.60854212e-01  1.14345648e+00  6.89990956e-02  3.16423980e-01
  7.44308252e-01  1.00000000e+00  1.00000000e+00  1.00000000e+00  1.00000000e+00
  1.00000000e+00  1.83470016e-03  1.40373012e-02  6.88426061e-02  2.32184421e-01
  4.67941342e-01  3.62312032e-01 -1.19332409e-01 -1.60854212e-01  1.14345648e+00
  6.89990956e-02  3.16423980e-01  7.44308252e-01  1.00000000e+00  1.00000000e+00
  1.00000000e+00  1.00000000e+00  1.00000000e+00  1.83470016e-03  1.40373012e-02
  6.88426061e-02  2.32184421e-01  4.67941342e-01  3.62312032e-01 -1.19332409e-01
 -1.60854212e-01  1.14345648e+00  6.89990956e-02  3.16423980e-01  7.44308252e-01
  1.00000000e+00  1.00000000e+00  1.00000000e+00  1.00000000e+00  1.00000000e+00
  1.83470016e-03  1.40373012e-02  6.88426061e-02  2.32184421e-01  4.67941342e-01
  3.62312032e-01 -1.19332409e-01 -1.60854212e-01  1.14345648e+00  6.89990956e-02
  3.16423980e-01  7.44308252e-01  1.00000000e+00  1.00000000e+00  1.00000000e+00
  1.00000000e+00  1.00000000e+00  1.83470016e-03  1.40373012e-02  6.88426061e-02
  2.32184421e-01  4.67941342e-01  3.62312032e-01 -1.19332409e-01 -1.60854212e-01
  1.14345648e+00  6.89990956e-02  3.16423980e-01  7.44308252e-01  1.00000000e+00
  1.00000000e+00  1.00000000e+00  1.00000000e+00  1.00000000e+00  3.34945995e-02
  2.34726947e-01  8.13757318e-01  1.00000000e+00  3.34945995e-02  2.34726947e-01
  8.13757318e-01  1.00000000e+00  3.34945995e-02  2.34726947e-01  8.13757318e-01
  1.00000000e+00  3.34945995e-02  2.34726947e-01  8.13757318e-01  1.00000000e+00
  3.34945995e-02  2.34726947e-01  8.13757318e-01  1.00000000e+00  1.83470016e-03
  1.40373012e-02  6.88426061e-02  2.32184421e-01  4.67941342e-01  3.62312032e-01
 -1.19332409e-01 -1.60854212e-01  1.14345648e+00  6.89990956e-02  3.16423980e-01
  7.44308252e-01  1.00000000e+00  1.00000000e+00  1.00000000e+00  1.00000000e+00
  1.00000000e+00  1.83470016e-03  1.40373012e-02  6.88426061e-02  2.32184421e-01
  4.67941342e-01  3.62312032e-01 -1.19332409e-01 -1.60854212e-01  1.14345648e+00
  6.89990956e-02  3.16423980e-01  7.44308252e-01  1.00000000e+00  1.00000000e+00
  1.00000000e+00  1.00000000e+00  1.00000000e+00  1.83470016e-03  1.40373012e-02
  6.88426061e-02  2.32184421e-01  4.67941342e-01  3.62312032e-01 -1.19332409e-01
 -1.60854212e-01  1.14345648e+00  6.89990956e-02  3.16423980e-01  7.44308252e-01
  1.00000000e+00  1.00000000e+00  1.00000000e+00  1.00000000e+00  1.00000000e+00
  1.83470016e-03  1.40373012e-02  6.88426061e-02  2.32184421e-01  4.67941342e-01
  3.62312032e-01 -1.19332409e-01 -1.60854212e-01  1.14345648e+00  6.89990956e-02
  3.16423980e-01  7.44308252e-01  1.00000000e+00  1.00000000e+00  1.00000000e+00
  1.00000000e+00  1.00000000e+00  1.83470016e-03  1.40373012e-02  6.88426061e-02
  2.32184421e-01  4.67941342e-01  3.62312032e-01 -1.19332409e-01 -1.60854212e-01
  1.14345648e+00  6.89990956e-02  3.16423980e-01  7.44308252e-01  1.00000000e+00
  1.00000000e+00  1.00000000e+00  1.00000000e+00  1.00000000e+00  1.83470016e-03
  1.40373012e-02  6.88426061e-02  2.32184421e-01  4.67941342e-01  3.62312032e-01
 -1.19332409e-01 -1.60854212e-01  1.14345648e+00  6.89990956e-02  3.16423980e-01
  7.44308252e-01  1.00000000e+00  1.00000000e+00  1.00000000e+00  1.00000000e+00
  1.00000000e+00  3.34945995e-02  2.34726947e-01  8.13757318e-01  1.00000000e+00
  3.34945995e-02  2.34726947e-01  8.13757318e-01  1.00000000e+00  3.34945995e-02
  2.34726947e-01  8.13757318e-01  1.00000000e+00  3.34945995e-02  2.34726947e-01
  8.13757318e-01  1.00000000e+00  3.34945995e-02  2.34726947e-01  8.13757318e-01
  1.00000000e+00  1.83470016e-03  1.40373012e-02  6.88426061e-02  2.32184421e-01
  4.67941342e-01  3.62312032e-01 -1.19332409e-01 -1.60854212e-01  1.14345648e+00
  6.89990956e-02  3.16423980e-01  7.44308252e-01  1.00000000e+00  1.00000000e+00
  1.00000000e+00  1.00000000e+00  1.00000000e+00  1.83109981e-03  1.39500985e-02
  6.84450927e-02  2.32714275e-01  4.70192950e-01  3.58520862e-01 -1.10777504e-01
 -1.48026305e-01  1.13076704e+00  7.08742995e-02  3.39752798e-01  7.27158595e-01
  1.00000000e+00  1.00000000e+00  1.00000000e+00  1.00000000e+00  1.00000000e+00
  3.34945995e-02  2.34726947e-01  8.13757318e-01  1.00000000e+00  1.83470016e-03
  1.40373012e-02  6.88426061e-02  2.32184421e-01  4.67941342e-01  3.62312032e-01
 -1.19332409e-01 -1.60854212e-01  1.14345648e+00  6.89990956e-02  3.16423980e-01
  7.44308252e-01  1.00000000e+00  1.00000000e+00  1.00000000e+00  1.00000000e+00
  1.00000000e+00  1.83470016e-03  1.40373012e-02  6.88426061e-02  2.32184421e-01
  4.67941342e-01  3.62312032e-01 -1.19332409e-01 -1.60854212e-01  1.14345648e+00
  6.89990956e-02  3.16423980e-01  7.44308252e-01  1.00000000e+00  1.00000000e+00
  1.00000000e+00  1.00000000e+00  1.00000000e+00  3.34945995e-02  2.34726947e-01
  8.13757318e-01  1.00000000e+00  3.34945995e-02  2.34726947e-01  8.13757318e-01
  1.00000000e+00  1.83470016e-03  1.40373012e-02  6.88426061e-02  2.32184421e-01
  4.67941342e-01  3.62312032e-01 -1.19332409e-01 -1.60854212e-01  1.14345648e+00
  6.89990956e-02  3.16423980e-01  7.44308252e-01  1.00000000e+00  1.00000000e+00
  1.00000000e+00  1.00000000e+00  1.00000000e+00  1.83479944e-03  1.39949958e-02
  6.85869792e-02  2.32240930e-01  4.69069858e-01  3.60454891e-01 -1.14961023e-01
 -1.69118034e-01  1.14585223e+00  6.75800232e-02  3.23907111e-01  7.40895255e-01
  1.00000000e+00  1.00000000e+00  1.00000000e+00  1.00000000e+00  1.00000000e+00
  3.34945995e-02  2.34726947e-01  8.13757318e-01  1.00000000e+00  3.34945995e-02
  2.34726947e-01  8.13757318e-01  1.00000000e+00  3.34945995e-02  2.34726947e-01
  8.13757318e-01  1.00000000e+00  3.34945995e-02  2.34726947e-01  8.13757318e-01
  1.00000000e+00  3.34945995e-02  2.34726947e-01  8.13757318e-01  1.00000000e+00
  3.34945995e-02  2.34726947e-01  8.13757318e-01  1.00000000e+00
Coordinates of each shell                  R   N=         570
 -7.63687814e-01 -2.33602052e-01 -3.82031708e-01 -7.63687814e-01 -2.33602052e-01
 -3.82031708e-01 -7.63687814e-01 -2.33602052e-01 -3.82031708e-01 -7.63687814e-01
 -2.33602052e-01 -3.82031708e-01 -7.63687814e-01 -2.33602052e-01 -3.82031708e-01
 -7.63687814e-01 -2.33602052e-01 -3.82031708e-01 -7.63687814e-01 -2.33602052e-01
 -3.82031708e-01 -7.63687814e-01 -2.33602052e-01 -3.82031708e-01 -7.16719592e-01
  4.38219746e-01  2.46994383e+00 -7.16719592e-01  4.38219746e-01  2.46994383e+00
 -7.16719592e-01  4.38219746e-01  2.46994383e+00 -7.16719592e-01  4.38219746e-01
  2.46994383e+00 -7.16719592e-01  4.38219746e-01  2.46994383e+00 -7.16719592e-01
  4.38219746e-01  2.46994383e+00 -7.16719592e-01  4.38219746e-01  2.46994383e+00
 -7.16719592e-01  4.38219746e-01  2.46994383e+00  1.51422139e+00  2.76039340e-01
  3.89948875e+00  1.51422139e+00  2.76039340e-01  3.89948875e+00  1.51422139e+00
  2.76039340e-01  3.89948875e+00  1.51422139e+00  2.76039340e-01  3.89948875e+00
  1.51422139e+00  2.76039340e-01  3.89948875e+00  1.51422139e+00  2.76039340e-01
  3.89948875e+00  1.51422139e+00  2.76039340e-01  3.89948875e+00  1.51422139e+00
  2.76039340e-01  3.89948875e+00 -2.92457652e+00  1.24436111e+00  3.68892052e+00
 -2.92457652e+00  1.24436111e+00  3.68892052e+00 -2.92457652e+00  1.24436111e+00
  3.68892052e+00 -2.92457652e+00  1.24436111e+00  3.68892052e+00 -2.92457652e+00
  1.24436111e+00  3.68892052e+00 -2.92457652e+00  1.24436111e+00  3.68892052e+00
 -2.92457652e+00  1.24436111e+00  3.68892052e+00 -2.92457652e+00  1.24436111e+00
  3.68892052e+00 -2.91077638e+00  1.85755650e+00  6.26025338e+00 -2.91077638e+00
  1.85755650e+00  6.26025338e+00 -2.91077638e+00  1.85755650e+00  6.26025338e+00
 -2.91077638e+00  1.85755650e+00  6.26025338e+00 -2.91077638e+00  1.85755650e+00
  6.26025338e+00 -2.91077638e+00  1.85755650e+00  6.26025338e+00 -2.91077638e+00
  1.85755650e+00  6.26025338e+00 -2.91077638e+00  1.85755650e+00  6.26025338e+00
 -6.85275716e-01  1.67357596e+00  7.66471566e+00 -6.85275716e-01  1.67357596e+00
  7.66471566e+00 -6.85275716e-01  1.67357596e+00  7.66471566e+00 -6.85275716e-01
  1.67357596e+00  7.66471566e+00 -6.85275716e-01  1.67357596e+00  7.66471566e+00
 -6.85275716e-01  1.67357596e+00  7.66471566e+00 -6.85275716e-01  1.67357596e+00
  7.66471566e+00 -6.85275716e-01  1.67357596e+00  7.66471566e+00  1.53293839e+00
  8.81554623e-01  6.46797450e+00  1.53293839e+00  8.81554623e-01  6.46797450e+00
  1.53293839e+00  8.81554623e-01  6.46797450e+00  1.53293839e+00  8.81554623e-01
  6.46797450e+00  1.53293839e+00  8.81554623e-01  6.46797450e+00  1.53293839e+00
  8.81554623e-01  6.46797450e+00  1.53293839e+00  8.81554623e-01  6.46797450e+00
  1.53293839e+00  8.81554623e-01  6.46797450e+00 -4.65476661e+00  1.40551170e+00
  2.60196110e+00 -4.65476661e+00  1.40551170e+00  2.60196110e+00 -4.64877109e+00
  2.48357881e+00  7.16076111e+00 -4.64877109e+00  2.48357881e+00  7.16076111e+00
  3.27360904e+00 -3.00118950e-01  3.01208037e+00  3.27360904e+00 -3.00118950e-01
  3.01208037e+00 -6.72505855e-01  2.14948319e+00  9.66308454e+00 -6.72505855e-01
  2.14948319e+00  9.66308454e+00  3.28600851e+00  7.41872668e-01  7.53102533e+00
  3.28600851e+00  7.41872668e-01  7.53102533e+00  7.60879408e-01  1.73005285e+00
 -1.87163127e+00  7.60879408e-01  1.73005285e+00 -1.87163127e+00  7.60879408e-01
  1.73005285e+00 -1.87163127e+00  7.60879408e-01  1.73005285e+00 -1.87163127e+00
  7.60879408e-01  1.73005285e+00 -1.87163127e+00  7.60879408e-01  1.73005285e+00
 -1.87163127e+00  7.60879408e-01  1.73005285e+00 -1.87163127e+00  7.60879408e-01
  1.73005285e+00 -1.87163127e+00  3.39387569e+00  1.57044959e+00 -2.13093036e+00
  3.39387569e+00  1.57044959e+00 -2.13093036e+00  3.39387569e+00  1.57044959e+00
 -2.13093036e+00  3.39387569e+00  1.57044959e+00 -2.13093036e+00  3.39387569e+00
  1.57044959e+00 -2.13093036e+00  3.39387569e+00  1.57044959e+00 -2.13093036e+00
  3.39387569e+00  1.57044959e+00 -2.13093036e+00  3.39387569e+00  1.57044959e+00
 -2.13093036e+00  4.74527784e+00  3.42938073e+00 -3.43215324e+00  4.74527784e+00
  3.42938073e+00 -3.43215324e+00  4.74527784e+00  3.42938073e+00 -3.43215324e+00
  4.74527784e+00  3.42938073e+00 -3.43215324e+00  4.74527784e+00  3.42938073e+00
 -3.43215324e+00  4.74527784e+00  3.42938073e+00 -3.43215324e+00  4.74527784e+00
  3.42938073e+00 -3.43215324e+00  4.74527784e+00  3.42938073e+00 -3.43215324e+00
  3.48453868e+00  5.48892327e+00 -4.49736657e+00  3.48453868e+00  5.48892327e+00