Generated by Psi4
     FORCE                           RHF                       TESTBAS
Number of atoms                            I               34
Charge                                     I                0
Multiplicity                               I                1
Number of electrons                        I              126
Number of alpha electrons                  I               63
Number of beta electrons                   I               63
Number of basis functions                  I              357
Number of independent functions            I              357
Atomic numbers                             I   N=          34
           6           6           6           7           6           6
           6           6           6           1           1           1
           8           8           6           1           1           6
           1           8           6           1           6           1
           1           1           1           1           1           1
           1           6           1           1
Nuclear charges                            R   N=          34
  6.00000000e+00  6.00000000e+00  6.00000000e+00  7.00000000e+00  6.00000000e+00
  6.00000000e+00  6.00000000e+00  6.00000000e+00  6.00000000e+00  1.00000000e+00
  1.00000000e+00  1.00000000e+00  8.00000000e+00  8.00000000e+00  6.00000000e+00
  1.00000000e+00  1.00000000e+00  6.00000000e+00  1.00000000e+00  8.00000000e+00
  6.00000000e+00  1.00000000e+00  6.00000000e+00  1.00000000e+00  1.00000000e+00
  1.00000000e+00  1.00000000e+00  1.00000000e+00  1.00000000e+00  1.00000000e+00
  1.00000000e+00  6.00000000e+00  1.00000000e+00  1.00000000e+00
Current cartesian coordinates              R   N=         102
 -2.41419895e-01 -8.88879300e-04 -1.07373629e+00 -2.77533556e+00  1.13094934e+00
 -5.00873784e-01 -3.28034002e+00  2.52392615e+00  2.00528696e+00 -2.77316474e+00
  8.04249459e-01  4.12119188e+00  1.97436307e+00  6.64933899e-01  2.24051599e-01
  4.33634981e+00 -3.84528162e-01 -3.92587349e-01  4.37560606e+00 -2.12467210e+00
 -2.33905290e+00  2.18167359e+00 -2.80239463e+00 -3.64270084e+00 -1.37959724e-01
 -1.78070677e+00 -3.07297150e+00  1.91393898e+00  2.07546802e+00  1.70902576e+00
 -1.84690579e+00 -2.28907950e+00 -4.08178611e+00  6.04715244e+00  1.46415422e-01
  6.04841380e-01  6.38860290e+00 -3.46832112e+00 -3.25810692e+00  2.76410423e+00
 -4.61740722e+00 -5.41584707e+00 -2.00804163e+00  5.19464565e+00  2.10051094e+00
 -5.33131587e+00  2.80297307e+00  1.98069278e+00 -4.72876264e-01  5.15872496e+00
  3.49929838e+00 -3.86152833e+00  7.32961239e+00  2.74830464e+00 -1.11726817e+00
  5.62360081e+00  2.75874392e-01 -4.49655512e+00  9.36410426e-01 -2.03687296e+00
 -3.85350383e+00  1.55344017e+00  6.55548541e+00 -8.89455056e-01  4.65154174e-01
  4.31053803e+00 -3.36458022e+00 -4.70404390e-01  8.55685925e+00 -5.89653308e+00
  1.78808079e+00  6.28179620e+00 -3.12605671e+00  3.39011655e+00  7.23913855e+00
 -4.15440912e+00 -2.28877621e+00  7.96227309e+00 -4.22114792e+00  6.82993868e-02
  1.03647912e+01 -1.33129608e+00 -7.29393277e-01  8.88090236e+00 -4.76633084e+00
  7.02047557e+00  4.58622982e+00 -5.36021445e+00  7.46031352e+00  1.32281981e+00
 -2.89414786e+00  9.16135943e+00  2.81740081e+00  5.46573550e+00 -4.71752642e+00
 -5.49010012e+00  6.15473628e+00 -3.70546231e+00 -7.16607528e+00  6.08393559e+00
 -6.68469386e+00 -5.47308925e+00
Integer atomic weights                     I   N=          34
          12          12          12          14          12          12
          12          12          12           1           1           1
          15          15          12           1           1          12
           1          15          12           1          12           1
           1           1           1           1           1           1
           1          12           1           1
Real atomic weights                        R   N=          34
  1.20000000e+01  1.20000000e+01  1.20000000e+01  1.40030740e+01  1.20000000e+01
  1.20000000e+01  1.20000000e+01  1.20000000e+01  1.20000000e+01  1.00782503e+00
  1.00782503e+00  1.00782503e+00  1.59949146e+01  1.59949146e+01  1.20000000e+01
  1.00782503e+00  1.00782503e+00  1.20000000e+01  1.00782503e+00  1.59949146e+01
  1.20000000e+01  1.00782503e+00  1.20000000e+01  1.00782503e+00  1.00782503e+00
  1.00782503e+00  1.00782503e+00  1.00782503e+00  1.00782503e+00  1.00782503e+00
  1.00782503e+00  1.20000000e+01  1.00782503e+00  1.00782503e+00
Number of primitive shells                 I              357
Number of contracted shells                I              170
Pure/Cartesian d shells                    I                1
Pure/Cartesian f shells                    I                1
Highest angular momentum                   I                2
Largest degree of contraction              I                6
Shell types                                I   N=         170
           0           0           1           0           1           2
           0           1           0           0           1           0
           1           2           0           1           0           0
           1           0           1           2           0           1
           0           0           1           0           1           2
           0           1           0           0           1           0
           1           2           0           1           0           0
           1           0           1           2           0           1
           0           0           1           0           1           2
           0           1           0           0           1           0
           1           2           0           1           0           0
           1           0           1           2           0           1
           0           0           0           0           0           0
           0           0           1           0           1           2
           0           1           0           0           1           0
           1           2           0           1           0           0
           1           0           1           2           0           1
           0           0           0           0           0           0
           1           0           1           2           0           1
           0           0           0           0           1           0
           1           2           0           1           0           0
           1           0           1           2           0           1
           0           0           0           0           1           0
           1           2           0           1           0           0
           0           0           0           0           0           0
           0           0           0           0           0           0
           0           0           0           0           1           0
           1           2           0           1           0           0
           0           0
Number of primitives per shell             I   N=         170
           6           3           3           1           1           1
           1           1           6           3           3           1
           1           1           1           1           6           3
           3           1           1           1           1           1
           6           3           3           1           1           1
           1           1           6           3           3           1
           1           1           1           1           6           3
           3           1           1           1           1           1
           6           3           3           1           1           1
           1           1           6           3           3           1
           1           1           1           1           6           3
           3           1           1           1           1           1
           3           1           3           1           3           1
           6           3           3           1           1           1
           1           1           6           3           3           1
           1           1           1           1           6           3
           3           1           1           1           1           1
           3           1           3           1           6           3
           3           1           1           1           1           1
           3           1           6           3           3           1
           1           1           1           1           6           3
           3           1           1           1           1           1
           3           1           6           3           3           1
           1           1           1           1           3           1
           3           1           3           1           3           1
           3           1           3           1           3           1
           3           1           6           3           3           1
           1           1           1           1           3           1
           3           1
Shell to atom map                          I   N=         170
           1           1           1           1           1           1
           1           1           2           2           2           2
           2           2           2           2           3           3
           3           3           3           3           3           3
           4           4           4           4           4           4
           4           4           5           5           5           5
           5           5           5           5           6           6
           6           6           6           6           6           6
           7           7           7           7           7           7
           7           7           8           8           8           8
           8           8           8           8           9           9
           9           9           9           9           9           9
          10          10          11          11          12          12
          13          13          13          13          13          13
          13          13          14          14          14          14
          14          14          14          14          15          15
          15          15          15          15          15          15
          16          16          17          17          18          18
          18          18          18          18          18          18
          19          19          20          20          20          20
          20          20          20          20          21          21
          21          21          21          21          21          21
          22          22          23          23          23          23
          23          23          23          23          24          24
          25          25          26          26          27          27
          28          28          29          29          30          30
          31          31          32          32          32          32
          32          32          32          32          33          33
          34          34
Primitive exponents                        R   N=         357
  3.04752490e+03  4.57369510e+02  1.03948690e+02  2.92101550e+01  9.28666300e+00
  3.16392700e+00  7.86827240e+00  1.88128850e+00  5.44249300e-01  7.86827240e+00
  1.88128850e+00  5.44249300e-01  1.68714400e-01  1.68714400e-01  8.00000000e-01
  4.38000000e-02  4.38000000e-02  3.04752490e+03  4.57369510e+02  1.03948690e+02
  2.92101550e+01  9.28666300e+00  3.16392700e+00  7.86827240e+00  1.88128850e+00
  5.44249300e-01  7.86827240e+00  1.88128850e+00  5.44249300e-01  1.68714400e-01
  1.68714400e-01  8.00000000e-01  4.38000000e-02  4.38000000e-02  3.04752490e+03
  4.57369510e+02  1.03948690e+02  2.92101550e+01  9.28666300e+00  3.16392700e+00
  7.86827240e+00  1.88128850e+00  5.44249300e-01  7.86827240e+00  1.88128850e+00
  5.44249300e-01  1.68714400e-01  1.68714400e-01  8.00000000e-01  4.38000000e-02
  4.38000000e-02  4.17351100e+03  6.27457900e+02  1.42902100e+02  4.02343300e+01
  1.28202100e+01  4.39043700e+00  1.16263580e+01  2.71628000e+00  7.72218000e-01
  1.16263580e+01  2.71628000e+00  7.72218000e-01  2.12031300e-01  2.12031300e-01
  8.00000000e-01  6.39000000e-02  6.39000000e-02  3.04752490e+03  4.57369510e+02
  1.03948690e+02  2.92101550e+01  9.28666300e+00  3.16392700e+00  7.86827240e+00
  1.88128850e+00  5.44249300e-01  7.86827240e+00  1.88128850e+00  5.44249300e-01
  1.68714400e-01  1.68714400e-01  8.00000000e-01  4.38000000e-02  4.38000000e-02
  3.04752490e+03  4.57369510e+02  1.03948690e+02  2.92101550e+01  9.28666300e+00
  3.16392700e+00  7.86827240e+00  1.88128850e+00  5.44249300e-01  7.86827240e+00
  1.88128850e+00  5.44249300e-01  1.68714400e-01  1.68714400e-01  8.00000000e-01
  4.38000000e-02  4.38000000e-02  3.04752490e+03  4.57369510e+02  1.03948690e+02
  2.92101550e+01  9.28666300e+00  3.16392700e+00  7.86827240e+00  1.88128850e+00
  5.44249300e-01  7.86827240e+00  1.88128850e+00  5.44249300e-01  1.68714400e-01
  1.68714400e-01  8.00000000e-01  4.38000000e-02  4.38000000e-02  3.04752490e+03
  4.57369510e+02  1.03948690e+02  2.92101550e+01  9.28666300e+00  3.16392700e+00
  7.86827240e+00  1.88128850e+00  5.44249300e-01  7.86827240e+00  1.88128850e+00
  5.44249300e-01  1.68714400e-01  1.68714400e-01  8.00000000e-01  4.38000000e-02
  4.38000000e-02  3.04752490e+03  4.57369510e+02  1.03948690e+02  2.92101550e+01
  9.28666300e+00  3.16392700e+00  7.86827240e+00  1.88128850e+00  5.44249300e-01
  7.86827240e+00  1.88128850e+00  5.44249300e-01  1.68714400e-01  1.68714400e-01
  8.00000000e-01  4.38000000e-02  4.38000000e-02  1.87311370e+01  2.82539370e+00
  6.40121700e-01  1.61277800e-01  1.87311370e+01  2.82539370e+00  6.40121700e-01
  1.61277800e-01  1.87311370e+01  2.82539370e+00  6.40121700e-01  1.61277800e-01
  5.48467170e+03  8.25234950e+02  1.88046960e+02  5.29645000e+01  1.68975700e+01
  5.79963530e+00  1.55396160e+01  3.59993360e+00  1.01376180e+00  1.55396160e+01
  3.59993360e+00  1.01376180e+00  2.70005800e-01  2.70005800e-01  8.00000000e-01
  8.45000000e-02  8.45000000e-02  5.48467170e+03  8.25234950e+02  1.88046960e+02
  5.29645000e+01  1.68975700e+01  5.79963530e+00  1.55396160e+01  3.59993360e+00
  1.01376180e+00  1.55396160e+01  3.59993360e+00  1.01376180e+00  2.70005800e-01
  2.70005800e-01  8.00000000e-01  8.45000000e-02  8.45000000e-02  3.04752490e+03
  4.57369510e+02  1.03948690e+02  2.92101550e+01  9.28666300e+00  3.16392700e+00
  7.86827240e+00  1.88128850e+00  5.44249300e-01  7.86827240e+00  1.88128850e+00
  5.44249300e-01  1.68714400e-01  1.68714400e-01  8.00000000e-01  4.38000000e-02
  4.38000000e-02  1.87311370e+01  2.82539370e+00  6.40121700e-01  1.61277800e-01
  1.87311370e+01  2.82539370e+00  6.40121700e-01  1.61277800e-01  3.04752490e+03
  4.57369510e+02  1.03948690e+02  2.92101550e+01  9.28666300e+00  3.16392700e+00
  7.86827240e+00  1.88128850e+00  5.44249300e-01  7.86827240e+00  1.88128850e+00
  5.44249300e-01  1.68714400e-01  1.68714400e-01  8.00000000e-01  4.38000000e-02
  4.38000000e-02  1.87311370e+01  2.82539370e+00  6.40121700e-01  1.61277800e-01
  5.48467170e+03  8.25234950e+02  1.88046960e+02  5.29645000e+01  1.68975700e+01
  5.79963530e+00  1.55396160e+01  3.59993360e+00  1.01376180e+00  1.55396160e+01
  3.59993360e+00  1.01376180e+00  2.70005800e-01  2.70005800e-01  8.00000000e-01
  8.45000000e-02  8.45000000e-02  3.04752490e+03  4.57369510e+02  1.03948690e+02
  2.92101550e+01  9.28666300e+00  3.16392700e+00  7.86827240e+00  1.88128850e+00
  5.44249300e-01  7.86827240e+00  1.88128850e+00  5.44249300e-01  1.68714400e-01
  1.68714400e-01  8.00000000e-01  4.38000000e-02  4.38000000e-02  1.87311370e+01
  2.82539370e+00  6.40121700e-01  1.61277800e-01  3.04752490e+03  4.57369510e+02
  1.03948690e+02  2.92101550e+01  9.28666300e+00  3.16392700e+00  7.86827240e+00
  1.88128850e+00  5.44249300e-01  7.86827240e+00  1.88128850e+00  5.44249300e-01
  1.68714400e-01  1.68714400e-01  8.00000000e-01  4.38000000e-02  4.38000000e-02
  1.87311370e+01  2.82539370e+00  6.40121700e-01  1.61277800e-01  1.87311370e+01
  2.82539370e+00  6.40121700e-01  1.61277800e-01  1.87311370e+01  2.82539370e+00
  6.40121700e-01  1.61277800e-01  1.87311370e+01  2.82539370e+00  6.40121700e-01
  1.61277800e-01  1.87311370e+01  2.82539370e+00  6.40121700e-01  1.61277800e-01
  1.87311370e+01  2.82539370e+00  6.40121700e-01  1.61277800e-01  1.87311370e+01
  2.82539370e+00  6.40121700e-01  1.61277800e-01  1.87311370e+01  2.82539370e+00
  6.40121700e-01  1.61277800e-01  3.04752490e+03  4.57369510e+02  1.03948690e+02
  2.92101550e+01  9.28666300e+00  3.16392700e+00  7.86827240e+00  1.88128850e+00
  5.44249300e-01  7.86827240e+00  1.88128850e+00  5.44249300e-01  1.68714400e-01
  1.68714400e-01  8.00000000e-01  4.38000000e-02  4.38000000e-02  1.87311370e+01
  2.82539370e+00  6.40121700e-01  1.61277800e-01  1.87311370e+01  2.82539370e+00
  6.40121700e-01  1.61277800e-01
Contraction coefficients                   R   N=         357
  1.83470016e-03  1.40373012e-02  6.88426061e-02  2.32184421e-01  4.67941342e-01
  3.62312032e-01 -1.19332409e-01 -1.60854212e-01  1.14345648e+00  6.89990956e-02
  3.16423980e-01  7.44308252e-01  1.00000000e+00  1.00000000e+00  1.00000000e+00
  1.00000000e+00  1.00000000e+00  1.83470016e-03  1.40373012e-02  6.88426061e-02
  2.32184421e-01  4.67941342e-01  3.62312032e-01 -1.19332409e-01 -1.60854212e-01
  1.14345648e+00  6.89990956e-02  3.16423980e-01  7.44308252e-01  1.00000000e+00
  1.00000000e+00  1.00000000e+00  1.00000000e+00  1.00000000e+00  1.83470016e-03
  1.40373012e-02  6.88426061e-02  2.32184421e-01  4.67941342e-01  3.62312032e-01
 -1.19332409e-01 -1.60854212e-01  1.14345648e+00  6.89990956e-02  3.16423980e-01
  7.44308252e-01  1.00000000e+00  1.00000000e+00  1.00000000e+00  1.00000000e+00
  1.00000000e+00  1.83479944e-03  1.39949958e-02  6.85869792e-02  2.32240930e-01
  4.69069858e-01  3.60454891e-01 -1.14961023e-01 -1.69118034e-01  1.14585223e+00
  6.75800232e-02  3.23907111e-01  7.40895255e-01  1.00000000e+00  1.00000000e+00
  1.00000000e+00  1.00000000e+00  1.00000000e+00  1.83470016e-03  1.40373012e-02
  6.88426061e-02  2.32184421e-01  4.67941342e-01  3.62312032e-01 -1.19332409e-01
 -1.60854212e-01  1.14345648e+00  6.89990956e-02  3.16423980e-01  7.44308252e-01
  1.00000000e+00  1.00000000e+00  1.00000000e+00  1.00000000e+00  1.00000000e+00
  1.83470016e-03  1.40373012e-02  6.88426061e-02  2.32184421e-01  4.67941342e-01
  3.62312032e-01 -1.19332409e-01 -1.60854212e-01  1.14345648e+00  6.89990956e-02
  3.16423980e-01  7.44308252e-01  1.00000000e+00  1.00000000e+00  1.00000000e+00
  1.00000000e+00  1.00000000e+00  1.83470016e-03  1.40373012e-02  6.88426061e-02
  2.32184421e-01  4.67941342e-01  3.62312032e-01 -1.19332409e-01 -1.60854212e-01
  1.14345648e+00  6.89990956e-02  3.16423980e-01  7.44308252e-01  1.00000000e+00
  1.00000000e+00  1.00000000e+00  1.00000000e+00  1.00000000e+00  1.83470016e-03
  1.40373012e-02  6.88426061e-02  2.32184421e-01  4.67941342e-01  3.62312032e-01
 -1.19332409e-01 -1.60854212e-01  1.14345648e+00  6.89990956e-02  3.16423980e-01
  7.44308252e-01  1.00000000e+00  1.00000000e+00  1.00000000e+00  1.00000000e+00
  1.00000000e+00  1.83470016e-03  1.40373012e-02  6.88426061e-02  2.32184421e-01
  4.67941342e-01  3.62312032e-01 -1.19332409e-01 -1.60854212e-01  1.14345648e+00
  6.89990956e-02  3.16423980e-01  7.44308252e-01  1.00000000e+00  1.00000000e+00
  1.00000000e+00  1.00000000e+00  1.00000000e+00  3.34945995e-02  2.34726947e-01
  8.13757318e-01  1.00000000e+00  3.34945995e-02  2.34726947e-01  8.13757318e-01
  1.00000000e+00  3.34945995e-02  2.34726947e-01  8.13757318e-01  1.00000000e+00
  1.83109981e-03  1.39500985e-02  6.84450927e-02  2.32714275e-01  4.70192950e-01
  3.58520862e-01 -1.10777504e-01 -1.48026305e-01  1.13076704e+00  7.08742995e-02
  3.39752798e-01  7.27158595e-01  1.00000000e+00  1.00000000e+00  1.00000000e+00
  1.00000000e+00  1.00000000e+00  1.83109981e-03  1.39500985e-02  6.84450927e-02
  2.32714275e-01  4.70192950e-01  3.58520862e-01 -1.10777504e-01 -1.48026305e-01
  1.13076704e+00  7.08742995e-02  3.39752798e-01  7.27158595e-01  1.00000000e+00
  1.00000000e+00  1.00000000e+00  1.00000000e+00  1.00000000e+00  1.83470016e-03
  1.40373012e-02  6.88426061e-02  2.32184421e-01  4.67941342e-01  3.62312032e-01
 -1.19332409e-01 -1.60854212e-01  1.14345648e+00  6.89990956e-02  3.16423980e-01
  7.44308252e-01  1.00000000e+00  1.00000000e+00  1.00000000e+00  1.00000000e+00
  1.00000000e+00  3.34945995e-02  2.34726947e-01  8.13757318e-01  1.00000000e+00
  3.34945995e-02  2.34726947e-01  8.13757318e-01  1.00000000e+00  1.83470016e-03
  1.40373012e-02  6.88426061e-02  2.32184421e-01  4.67941342e-01  3.62312032e-01
 -1.19332409e-01 -1.60854212e-01  1.14345648e+00  6.89990956e-02  3.16423980e-01
  7.44308252e-01  1.00000000e+00  1.00000000e+00  1.00000000e+00  1.00000000e+00
  1.00000000e+00  3.34945995e-02  2.34726947e-01  8.13757318e-01  1.00000000e+00
  1.83109981e-03  1.39500985e-02  6.84450927e-02  2.32714275e-01  4.70192950e-01
  3.58520862e-01 -1.10777504e-01 -1.48026305e-01  1.13076704e+00  7.08742995e-02
  3.39752798e-01  7.27158595e-01  1.00000000e+00  1.00000000e+00  1.00000000e+00
  1.00000000e+00  1.00000000e+00  1.83470016e-03  1.40373012e-02  6.88426061e-02
  2.32184421e-01  4.67941342e-01  3.62312032e-01 -1.19332409e-01 -1.60854212e-01
  1.14345648e+00  6.89990956e-02  3.16423980e-01  7.44308252e-01  1.00000000e+00
  1.00000000e+00  1.00000000e+00  1.00000000e+00  1.00000000e+00  3.34945995e-02
  2.34726947e-01  8.13757318e-01  1.00000000e+00  1.83470016e-03  1.40373012e-02
  6.88426061e-02  2.32184421e-01  4.67941342e-01  3.62312032e-01 -1.19332409e-01
 -1.60854212e-01  1.14345648e+00  6.89990956e-02  3.16423980e-01  7.44308252e-01
  1.00000000e+00  1.00000000e+00  1.00000000e+00  1.00000000e+00  1.00000000e+00
  3.34945995e-02  2.34726947e-01  8.13757318e-01  1.00000000e+00  3.34945995e-02
  2.34726947e-01  8.13757318e-01  1.00000000e+00  3.34945995e-02  2.34726947e-01
  8.13757318e-01  1.00000000e+00  3.34945995e-02  2.34726947e-01  8.13757318e-01
  1.00000000e+00  3.34945995e-02  2.34726947e-01  8.13757318e-01  1.00000000e+00
  3.34945995e-02  2.34726947e-01  8.13757318e-01  1.00000000e+00  3.34945995e-02
  2.34726947e-01  8.13757318e-01  1.00000000e+00  3.34945995e-02  2.34726947e-01
  8.13757318e-01  1.00000000e+00  1.83470016e-03  1.40373012e-02  6.88426061e-02
  2.32184421e-01  4.67941342e-01  3.62312032e-01 -1.19332409e-01 -1.60854212e-01
  1.14345648e+00  6.89990956e-02  3.16423980e-01  7.44308252e-01  1.00000000e+00
  1.00000000e+00  1.00000000e+00  1.00000000e+00  1.00000000e+00  3.34945995e-02
  2.34726947e-01  8.13757318e-01  1.00000000e+00  3.34945995e-02  2.34726947e-01
  8.13757318e-01  1.00000000e+00
Coordinates of each shell                  R   N=         510
 -2.41419895e-01 -8.88879300e-04 -1.07373629e+00 -2.41419895e-01 -8.88879300e-04
 -1.07373629e+00 -2.41419895e-01 -8.88879300e-04 -1.07373629e+00 -2.41419895e-01
 -8.88879300e-04 -1.07373629e+00 -2.41419895e-01 -8.88879300e-04 -1.07373629e+00
 -2.41419895e-01 -8.88879300e-04 -1.07373629e+00 -2.41419895e-01 -8.88879300e-04
 -1.07373629e+00 -2.41419895e-01 -8.88879300e-04 -1.07373629e+00 -2.77533556e+00
  1.13094934e+00 -5.00873784e-01 -2.77533556e+00  1.13094934e+00 -5.00873784e-01
 -2.77533556e+00  1.13094934e+00 -5.00873784e-01 -2.77533556e+00  1.13094934e+00
 -5.00873784e-01 -2.77533556e+00  1.13094934e+00 -5.00873784e-01 -2.77533556e+00
  1.13094934e+00 -5.00873784e-01 -2.77533556e+00  1.13094934e+00 -5.00873784e-01
 -2.77533556e+00  1.13094934e+00 -5.00873784e-01 -3.28034002e+00  2.52392615e+00
  2.00528696e+00 -3.28034002e+00  2.52392615e+00  2.00528696e+00 -3.28034002e+00
  2.52392615e+00  2.00528696e+00 -3.28034002e+00  2.52392615e+00  2.00528696e+00
 -3.28034002e+00  2.52392615e+00  2.00528696e+00 -3.28034002e+00  2.52392615e+00
  2.00528696e+00 -3.28034002e+00  2.52392615e+00  2.00528696e+00 -3.28034002e+00
  2.52392615e+00  2.00528696e+00 -2.77316474e+00  8.04249459e-01  4.12119188e+00
 -2.77316474e+00  8.04249459e-01  4.12119188e+00 -2.77316474e+00  8.04249459e-01
  4.12119188e+00 -2.77316474e+00  8.04249459e-01  4.12119188e+00 -2.77316474e+00
  8.04249459e-01  4.12119188e+00 -2.77316474e+00  8.04249459e-01  4.12119188e+00
 -2.77316474e+00  8.04249459e-01  4.12119188e+00 -2.77316474e+00  8.04249459e-01
  4.12119188e+00  1.97436307e+00  6.64933899e-01  2.24051599e-01  1.97436307e+00
  6.64933899e-01  2.24051599e-01  1.97436307e+00  6.64933899e-01  2.24051599e-01
  1.97436307e+00  6.64933899e-01  2.24051599e-01  1.97436307e+00  6.64933899e-01
  2.24051599e-01  1.97436307e+00  6.64933899e-01  2.24051599e-01  1.97436307e+00
  6.64933899e-01  2.24051599e-01  1.97436307e+00  6.64933899e-01  2.24051599e-01
  4.33634981e+00 -3.84528162e-01 -3.92587349e-01  4.33634981e+00 -3.84528162e-01
 -3.92587349e-01  4.33634981e+00 -3.84528162e-01 -3.92587349e-01  4.33634981e+00
 -3.84528162e-01 -3.92587349e-01  4.33634981e+00 -3.84528162e-01 -3.92587349e-01
  4.33634981e+00 -3.84528162e-01 -3.92587349e-01  4.33634981e+00 -3.84528162e-01
 -3.92587349e-01  4.33634981e+00 -3.84528162e-01 -3.92587349e-01  4.37560606e+00
 -2.12467210e+00 -2.33905290e+00  4.37560606e+00 -2.12467210e+00 -2.33905290e+00
  4.37560606e+00 -2.12467210e+00 -2.33905290e+00  4.37560606e+00 -2.12467210e+00
 -2.33905290e+00  4.37560606e+00 -2.12467210e+00 -2.33905290e+00  4.37560606e+00
 -2.12467210e+00 -2.33905290e+00  4.37560606e+00 -2.12467210e+00 -2.33905290e+00
  4.37560606e+00 -2.12467210e+00 -2.33905290e+00  2.18167359e+00 -2.80239463e+00
 -3.64270084e+00  2.18167359e+00 -2.80239463e+00 -3.64270084e+00  2.18167359e+00
 -2.80239463e+00 -3.64270084e+00  2.18167359e+00 -2.80239463e+00 -3.64270084e+00
  2.18167359e+00 -2.80239463e+00 -3.64270084e+00  2.18167359e+00 -2.80239463e+00
 -3.64270084e+00  2.18167359e+00 -2.80239463e+00 -3.64270084e+00  2.18167359e+00
 -2.80239463e+00 -3.64270084e+00 -1.37959724e-01 -1.78070677e+00 -3.07297150e+00
 -1.37959724e-01 -1.78070677e+00 -3.07297150e+00 -1.37959724e-01 -1.78070677e+00
 -3.07297150e+00 -1.37959724e-01 -1.78070677e+00 -3.07297150e+00 -1.37959724e-01
 -1.78070677e+00 -3.07297150e+00 -1.37959724e-01 -1.78070677e+00 -3.07297150e+00
 -1.37959724e-01 -1.78070677e+00 -3.07297150e+00 -1.37959724e-01 -1.78070677e+00
 -3.07297150e+00  1.91393898e+00  2.07546802e+00  1.70902576e+00  1.91393898e+00
  2.07546802e+00  1.70902576e+00 -1.84690579e+00 -2.28907950e+00 -4.08178611e+00
 -1.84690579e+00 -2.28907950e+00 -4.08178611e+00  6.04715244e+00  1.46415422e-01
  6.04841380e-01  6.04715244e+00  1.46415422e-01  6.04841380e-01  6.38860290e+00
 -3.46832112e+00 -3.25810692e+00  6.38860290e+00 -3.46832112e+00 -3.25810692e+00
  6.38860290e+00 -3.46832112e+00 -3.25810692e+00  6.38860290e+00 -3.46832112e+00
 -3.25810692e+00  6.38860290e+00 -3.46832112e+00 -3.25810692e+00  6.38860290e+00
 -3.46832112e+00 -3.25810692e+00  6.38860290e+00 -3.46832112e+00 -3.25810692e+00
  6.38860290e+00 -3.46832112e+00 -3.25810692e+00  2.76410423e+00 -4.61740722e+00
 -5.41584707e+00  2.76410423e+00 -4.61740722e+00 -5.41584707e+00  2.76410423e+00
 -4.61740722e+00 -5.41584707e+00  2.76410423e+00 -4.61740722e+00 -5.41584707e+00
  2.76410423e+00 -4.61740722e+00 -5.41584707e+00  2.76410423e+00 -4.61740722e+00
 -5.41584707e+00  2.76410423e+00 -4.61740722e+00 -5.41584707e+00  2.76410423e+00
 -4.61740722e+00 -5.41584707e+00 -2.00804163e+00  5.19464565e+00  2.10051094e+00
 -2.00804163e+00  5.19464565e+00  2.10051094e+00 -2.00804163e+00  5.19464565e+00
  2.10051094e+00 -2.00804163e+00  5.19464565e+00  2.10051094e+00 -2.00804163e+00
  5.19464565e+00  2.10051094e+00 -2.00804163e+00  5.19464565e+00  2.10051094e+00
 -2.00804163e+00  5.19464565e+00  2.10051094e+00 -2.00804163e+00  5.19464565e+00
  2.10051094e+00 -5.33131587e+00  2.80297307e+00  1.98069278e+00 -5.33131587e+00
  2.80297307e+00  1.98069278e+00 -4.72876264e-01  5.15872496e+00  3.49929838e+00
 -4.72876264e-01  5.15872496e+00  3.49929838e+00 -3.86152833e+00  7.32961239e+00
  2.74830464e+00 -3.86152833e+00  7.32961239e+00  2.74830464e+00 -3.86152833e+00
  7.32961239e+00  2.74830464e+00 -3.86152833e+00  7.32961239e+00  2.74830464e+00
 -3.86152833e+00  7.32961239e+00  2.74830464e+00 -3.86152833e+00  7.32961239e+00
  2.74830464e+00 -3.86152833e+00  7.32961239e+00  2.74830464e+00 -3.86152833e+00
  7.32961239e+00  2.74830464e+00 -1.11726817e+00  5.62360081e+00  2.75874392e-01
 -1.11726817e+00  5.62360081e+00  2.75874392e-01 -4.49655512e+00  9.36410426e-01
 -2.03687296e+00 -4.49655512e+00  9.36410426e-01 -2.03687296e+00 -4.49655512e+00
  9.36410426e-01 -2.03687296e+00 -4.49655512e+00  9.36410426e-01 -2.03687296e+00
 -4.49655512e+00  9.36410426e-01 -2.03687296e+00 -4.49655512e+00  9.36410426e-01
 -2.03687296e+00 -4.49655512e+00  9.36410426e-01 -2.03687296e+00 -4.49655512e+00
  9.36410426e-01 -2.03687296e+00 -3.85350383e+00  1.55344017e+00  6.55548541e+00
 -3.85350383e+00  1.55344017e+00  6.55548541e+00 -3.85350383e+00  1.55344017e+00
  6.55548541e+00 -3.85350383e+00  1.55344017e+00  6.55548541e+00 -3.85350383e+00
  1.55344017e+00  6.55548541e+00 -3.85350383e+00  1.55344017e+00  6.55548541e+00
 -3.85350383e+00  1.55344017e+00  6.55548541e+00 -3.85350383e+00  1.55344017e+00
  6.55548541e+00 -8.89455056e-01  4.65154174e-01  4.31053803e+00 -8.89455056e-01
  4.65154174e-01  4.31053803e+00 -3.36458022e+00 -4.70404390e-01  8.55685925e+00
 -3.36458022e+00 -4.70404390e-01  8.55685925e+00 -3.36458022e+00 -4.70404390e-01
  8.55685925e+00 -3.36458022e+00 -4.70404390e-01  8.55685925e+00 -3.36458022e+00
 -4.70404390e-01  8.55685925e+00 -3.36458022e+00 -4.70404390e-01  8.55685925e+00
 -3.36458022e+00 -4.70404390e-01  8.55685925e+00 -3.36458022e+00 -4.70404390e-01
  8.55685925e+00 -5.89653308e+00  1.78808079e+00  6.28179620e+00 -5.89653308e+00