Generated by Psi4
     FORCE                           RHF                       TESTBAS
Number of atoms                            I               39
Charge                                     I                0
Multiplicity                               I                1
Number of electrons                        I              134
Number of alpha electrons                  I               67
Number of beta electrons                   I               67
Number of basis functions                  I              384
Number of independent functions            I              384
Atomic numbers                             I   N=          39
           8           6           6           6           6           6
           6           1           1           1           1           7
           6           6           6           6           6           6
           6           1           1           1           1           1
           1           1           1           1           8           6
           1           1           1           6           1           1
           1           1           1
Nuclear charges                            R   N=          39
  8.00000000e+00  6.00000000e+00  6.00000000e+00  6.00000000e+00  6.00000000e+00
  6.00000000e+00  6.00000000e+00  1.00000000e+00  1.00000000e+00  1.00000000e+00
  1.00000000e+00  7.00000000e+00  6.00000000e+00  6.00000000e+00  6.00000000e+00
  6.00000000e+00  6.00000000e+00  6.00000000e+00  6.00000000e+00  1.00000000e+00
  1.00000000e+00  1.00000000e+00  1.00000000e+00  1.00000000e+00  1.00000000e+00
  1.00000000e+00  1.00000000e+00  1.00000000e+00  8.00000000e+00  6.00000000e+00
  1.00000000e+00  1.00000000e+00  1.00000000e+00  6.00000000e+00  1.00000000e+00
  1.00000000e+00  1.00000000e+00  1.00000000e+00  1.00000000e+00
Current cartesian coordinates              R   N=         117
  4.51998751e+00 -2.58028374e+00 -3.46899912e+00  6.73734259e-01 -3.23626879e-01
 -2.35098837e+00  3.56772559e+00 -5.87671488e-01 -2.81092734e+00  5.15894628e+00
  1.82360491e+00 -2.68546055e+00  3.75822468e+00  4.13973213e+00 -1.65716902e+00
  1.19773484e+00  4.56299764e+00 -2.99905510e+00 -6.26945488e-02  2.08032428e+00
 -3.89088819e+00  1.45698890e+00  5.79430536e+00 -4.64785026e+00 -7.04588384e-02
  5.57695506e+00 -1.71331177e+00 -2.12261345e+00  2.24821585e+00 -3.89580624e+00
  4.63928253e-01  1.69858026e+00 -5.86461477e+00 -7.86687533e-01 -2.43886341e+00
 -3.41053685e+00 -7.73150769e-01 -4.87956501e+00 -2.07303133e+00  8.60404673e-02
 -5.29279800e-02  4.81281033e-01 -2.21675933e+00  9.80302308e-01  1.24714385e+00
 -2.83500394e+00  1.18557646e+00  3.81563018e+00 -1.13558157e+00  3.45267837e-01
  5.66227910e+00  1.16129046e+00 -7.11547421e-01  4.89121855e+00  1.77532980e+00
 -9.22190140e-01  2.33868574e+00 -3.60073061e+00  1.62100428e+00 -1.22887019e-01
 -1.57048119e+00  4.89169600e-01  7.65921711e+00  2.48054486e+00 -1.38757700e+00
  6.31372107e+00 -1.68183727e-01 -2.73803497e+00 -5.21186371e+00  5.81730190e+00
  2.16104593e+00 -4.62952419e+00  6.86491178e+00  1.40088566e+00 -1.58573584e+00
  4.95480687e+00  5.82117209e+00 -1.85092909e+00  3.43853857e+00  3.88525671e+00
  3.71407621e-01  3.55594797e+00 -1.79040513e+00  1.80073157e+00 -5.14321569e+00
  2.23490125e+00  4.32116230e+00 -5.91243707e+00  2.47618520e+00  6.88340472e+00
 -6.02717518e+00  6.25441251e-01  7.81436009e+00 -7.78782479e+00  3.33231928e+00
  6.82604538e+00 -4.62462602e+00  3.70834513e+00  7.94609309e+00 -2.24660421e+00
 -6.83102511e+00 -3.60955893e+00 -1.69387175e+00 -4.61067502e+00 -2.39857013e-01
  1.14963472e+00 -5.58089783e+00 -1.71296184e+00 -4.18487330e+00 -6.18734346e+00
 -3.95547566e+00 -2.32252537e+00 -8.63920939e+00 -2.60087481e+00 -1.34450504e+00
 -7.17979274e+00 -5.44579644e+00
Integer atomic weights                     I   N=          39
          15          12          12          12          12          12
          12           1           1           1           1          14
          12          12          12          12          12          12
          12           1           1           1           1           1
           1           1           1           1          15          12
           1           1           1          12           1           1
           1           1           1
Real atomic weights                        R   N=          39
  1.59949146e+01  1.20000000e+01  1.20000000e+01  1.20000000e+01  1.20000000e+01
  1.20000000e+01  1.20000000e+01  1.00782503e+00  1.00782503e+00  1.00782503e+00
  1.00782503e+00  1.40030740e+01  1.20000000e+01  1.20000000e+01  1.20000000e+01
  1.20000000e+01  1.20000000e+01  1.20000000e+01  1.20000000e+01  1.00782503e+00
  1.00782503e+00  1.00782503e+00  1.00782503e+00  1.00782503e+00  1.00782503e+00
  1.00782503e+00  1.00782503e+00  1.00782503e+00  1.59949146e+01  1.20000000e+01
  1.00782503e+00  1.00782503e+00  1.00782503e+00  1.20000000e+01  1.00782503e+00
  1.00782503e+00  1.00782503e+00  1.00782503e+00  1.00782503e+00
Number of primitive shells                 I              390
Number of contracted shells                I              186
Pure/Cartesian d shells                    I                1
Pure/Cartesian f shells                    I                1
Highest angular momentum                   I                2
Largest degree of contraction              I                6
Shell types                                I   N=         186
           0           0           1           0           1           2
           0           1           0           0           1           0
           1           2           0           1           0           0
           1           0           1           2           0           1
           0           0           1           0           1           2
           0           1           0           0           1           0
           1           2           0           1           0           0
           1           0           1           2           0           1
           0           0           1           0           1           2
           0           1           0           0           0           0
           0           0           0           0           0           0
           1           0           1           2           0           1
           0           0           1           0           1           2
           0           1           0           0           1           0
           1           2           0           1           0           0
           1           0           1           2           0           1
           0           0           1           0           1           2
           0           1           0           0           1           0
           1           2           0           1           0           0
           1           0           1           2           0           1
           0           0           1           0           1           2
           0           1           0           0           0           0
           0           0           0           0           0           0
           0           0           0           0           0           0
           0           0           0           0           1           0
           1           2           0           1           0           0
           1           0           1           2           0           1
           0           0           0           0           0           0
           0           0           1           0           1           2
           0           1           0           0           0           0
           0           0           0           0           0           0
Number of primitives per shell             I   N=         186
           6           3           3           1           1           1
           1           1           6           3           3           1
           1           1           1           1           6           3
           3           1           1           1           1           1
           6           3           3           1           1           1
           1           1           6           3           3           1
           1           1           1           1           6           3
           3           1           1           1           1           1
           6           3           3           1           1           1
           1           1           3           1           3           1
           3           1           3           1           6           3
           3           1           1           1           1           1
           6           3           3           1           1           1
           1           1           6           3           3           1
           1           1           1           1           6           3
           3           1           1           1           1           1
           6           3           3           1           1           1
           1           1           6           3           3           1
           1           1           1           1           6           3
           3           1           1           1           1           1
           6           3           3           1           1           1
           1           1           3           1           3           1
           3           1           3           1           3           1
           3           1           3           1           3           1
           3           1           6           3           3           1
           1           1           1           1           6           3
           3           1           1           1           1           1
           3           1           3           1           3           1
           6           3           3           1           1           1
           1           1           3           1           3           1
           3           1           3           1           3           1
Shell to atom map                          I   N=         186
           1           1           1           1           1           1
           1           1           2           2           2           2
           2           2           2           2           3           3
           3           3           3           3           3           3
           4           4           4           4           4           4
           4           4           5           5           5           5
           5           5           5           5           6           6
           6           6           6           6           6           6
           7           7           7           7           7           7
           7           7           8           8           9           9
          10          10          11          11          12          12
          12          12          12          12          12          12
          13          13          13          13          13          13
          13          13          14          14          14          14
          14          14          14          14          15          15
          15          15          15          15          15          15
          16          16          16          16          16          16
          16          16          17          17          17          17
          17          17          17          17          18          18
          18          18          18          18          18          18
          19          19          19          19          19          19
          19          19          20          20          21          21
          22          22          23          23          24          24
          25          25          26          26          27          27
          28          28          29          29          29          29
          29          29          29          29          30          30
          30          30          30          30          30          30
          31          31          32          32          33          33
          34          34          34          34          34          34
          34          34          35          35          36          36
          37          37          38          38          39          39
Primitive exponents                        R   N=         390
  5.48467170e+03  8.25234950e+02  1.88046960e+02  5.29645000e+01  1.68975700e+01
  5.79963530e+00  1.55396160e+01  3.59993360e+00  1.01376180e+00  1.55396160e+01
  3.59993360e+00  1.01376180e+00  2.70005800e-01  2.70005800e-01  8.00000000e-01
  8.45000000e-02  8.45000000e-02  3.04752490e+03  4.57369510e+02  1.03948690e+02
  2.92101550e+01  9.28666300e+00  3.16392700e+00  7.86827240e+00  1.88128850e+00
  5.44249300e-01  7.86827240e+00  1.88128850e+00  5.44249300e-01  1.68714400e-01
  1.68714400e-01  8.00000000e-01  4.38000000e-02  4.38000000e-02  3.04752490e+03
  4.57369510e+02  1.03948690e+02  2.92101550e+01  9.28666300e+00  3.16392700e+00
  7.86827240e+00  1.88128850e+00  5.44249300e-01  7.86827240e+00  1.88128850e+00
  5.44249300e-01  1.68714400e-01  1.68714400e-01  8.00000000e-01  4.38000000e-02
  4.38000000e-02  3.04752490e+03  4.57369510e+02  1.03948690e+02  2.92101550e+01
  9.28666300e+00  3.16392700e+00  7.86827240e+00  1.88128850e+00  5.44249300e-01
  7.86827240e+00  1.88128850e+00  5.44249300e-01  1.68714400e-01  1.68714400e-01
  8.00000000e-01  4.38000000e-02  4.38000000e-02  3.04752490e+03  4.57369510e+02
  1.03948690e+02  2.92101550e+01  9.28666300e+00  3.16392700e+00  7.86827240e+00
  1.88128850e+00  5.44249300e-01  7.86827240e+00  1.88128850e+00  5.44249300e-01
  1.68714400e-01  1.68714400e-01  8.00000000e-01  4.38000000e-02  4.38000000e-02
  3.04752490e+03  4.57369510e+02  1.03948690e+02  2.92101550e+01  9.28666300e+00
  3.16392700e+00  7.86827240e+00  1.88128850e+00  5.44249300e-01  7.86827240e+00
  1.88128850e+00  5.44249300e-01  1.68714400e-01  1.68714400e-01  8.00000000e-01
  4.38000000e-02  4.38000000e-02  3.04752490e+03  4.57369510e+02  1.03948690e+02
  2.92101550e+01  9.28666300e+00  3.16392700e+00  7.86827240e+00  1.88128850e+00
  5.44249300e-01  7.86827240e+00  1.88128850e+00  5.44249300e-01  1.68714400e-01
  1.68714400e-01  8.00000000e-01  4.38000000e-02  4.38000000e-02  1.87311370e+01
  2.82539370e+00  6.40121700e-01  1.61277800e-01  1.87311370e+01  2.82539370e+00
  6.40121700e-01  1.61277800e-01  1.87311370e+01  2.82539370e+00  6.40121700e-01
  1.61277800e-01  1.87311370e+01  2.82539370e+00  6.40121700e-01  1.61277800e-01
  4.17351100e+03  6.27457900e+02  1.42902100e+02  4.02343300e+01  1.28202100e+01
  4.39043700e+00  1.16263580e+01  2.71628000e+00  7.72218000e-01  1.16263580e+01
  2.71628000e+00  7.72218000e-01  2.12031300e-01  2.12031300e-01  8.00000000e-01
  6.39000000e-02  6.39000000e-02  3.04752490e+03  4.57369510e+02  1.03948690e+02
  2.92101550e+01  9.28666300e+00  3.16392700e+00  7.86827240e+00  1.88128850e+00
  5.44249300e-01  7.86827240e+00  1.88128850e+00  5.44249300e-01  1.68714400e-01
  1.68714400e-01  8.00000000e-01  4.38000000e-02  4.38000000e-02  3.04752490e+03
  4.57369510e+02  1.03948690e+02  2.92101550e+01  9.28666300e+00  3.16392700e+00
  7.86827240e+00  1.88128850e+00  5.44249300e-01  7.86827240e+00  1.88128850e+00
  5.44249300e-01  1.68714400e-01  1.68714400e-01  8.00000000e-01  4.38000000e-02
  4.38000000e-02  3.04752490e+03  4.57369510e+02  1.03948690e+02  2.92101550e+01
  9.28666300e+00  3.16392700e+00  7.86827240e+00  1.88128850e+00  5.44249300e-01
  7.86827240e+00  1.88128850e+00  5.44249300e-01  1.68714400e-01  1.68714400e-01
  8.00000000e-01  4.38000000e-02  4.38000000e-02  3.04752490e+03  4.57369510e+02
  1.03948690e+02  2.92101550e+01  9.28666300e+00  3.16392700e+00  7.86827240e+00
  1.88128850e+00  5.44249300e-01  7.86827240e+00  1.88128850e+00  5.44249300e-01
  1.68714400e-01  1.68714400e-01  8.00000000e-01  4.38000000e-02  4.38000000e-02
  3.04752490e+03  4.57369510e+02  1.03948690e+02  2.92101550e+01  9.28666300e+00
  3.16392700e+00  7.86827240e+00  1.88128850e+00  5.44249300e-01  7.86827240e+00
  1.88128850e+00  5.44249300e-01  1.68714400e-01  1.68714400e-01  8.00000000e-01
  4.38000000e-02  4.38000000e-02  3.04752490e+03  4.57369510e+02  1.03948690e+02
  2.92101550e+01  9.28666300e+00  3.16392700e+00  7.86827240e+00  1.88128850e+00
  5.44249300e-01  7.86827240e+00  1.88128850e+00  5.44249300e-01  1.68714400e-01
  1.68714400e-01  8.00000000e-01  4.38000000e-02  4.38000000e-02  3.04752490e+03
  4.57369510e+02  1.03948690e+02  2.92101550e+01  9.28666300e+00  3.16392700e+00
  7.86827240e+00  1.88128850e+00  5.44249300e-01  7.86827240e+00  1.88128850e+00
  5.44249300e-01  1.68714400e-01  1.68714400e-01  8.00000000e-01  4.38000000e-02
  4.38000000e-02  1.87311370e+01  2.82539370e+00  6.40121700e-01  1.61277800e-01
  1.87311370e+01  2.82539370e+00  6.40121700e-01  1.61277800e-01  1.87311370e+01
  2.82539370e+00  6.40121700e-01  1.61277800e-01  1.87311370e+01  2.82539370e+00
  6.40121700e-01  1.61277800e-01  1.87311370e+01  2.82539370e+00  6.40121700e-01
  1.61277800e-01  1.87311370e+01  2.82539370e+00  6.40121700e-01  1.61277800e-01
  1.87311370e+01  2.82539370e+00  6.40121700e-01  1.61277800e-01  1.87311370e+01
  2.82539370e+00  6.40121700e-01  1.61277800e-01  1.87311370e+01  2.82539370e+00
  6.40121700e-01  1.61277800e-01  5.48467170e+03  8.25234950e+02  1.88046960e+02
  5.29645000e+01  1.68975700e+01  5.79963530e+00  1.55396160e+01  3.59993360e+00
  1.01376180e+00  1.55396160e+01  3.59993360e+00  1.01376180e+00  2.70005800e-01
  2.70005800e-01  8.00000000e-01  8.45000000e-02  8.45000000e-02  3.04752490e+03
  4.57369510e+02  1.03948690e+02  2.92101550e+01  9.28666300e+00  3.16392700e+00
  7.86827240e+00  1.88128850e+00  5.44249300e-01  7.86827240e+00  1.88128850e+00
  5.44249300e-01  1.68714400e-01  1.68714400e-01  8.00000000e-01  4.38000000e-02
  4.38000000e-02  1.87311370e+01  2.82539370e+00  6.40121700e-01  1.61277800e-01
  1.87311370e+01  2.82539370e+00  6.40121700e-01  1.61277800e-01  1.87311370e+01
  2.82539370e+00  6.40121700e-01  1.61277800e-01  3.04752490e+03  4.57369510e+02
  1.03948690e+02  2.92101550e+01  9.28666300e+00  3.16392700e+00  7.86827240e+00
  1.88128850e+00  5.44249300e-01  7.86827240e+00  1.88128850e+00  5.44249300e-01
  1.68714400e-01  1.68714400e-01  8.00000000e-01  4.38000000e-02  4.38000000e-02
  1.87311370e+01  2.82539370e+00  6.40121700e-01  1.61277800e-01  1.87311370e+01
  2.82539370e+00  6.40121700e-01  1.61277800e-01  1.87311370e+01  2.82539370e+00
  6.40121700e-01  1.61277800e-01  1.87311370e+01  2.82539370e+00  6.40121700e-01
  1.61277800e-01  1.87311370e+01  2.82539370e+00  6.40121700e-01  1.61277800e-01
Contraction coefficients                   R   N=         390
  1.83109981e-03  1.39500985e-02  6.84450927e-02  2.32714275e-01  4.70192950e-01
  3.58520862e-01 -1.10777504e-01 -1.48026305e-01  1.13076704e+00  7.08742995e-02
  3.39752798e-01  7.27158595e-01  1.00000000e+00  1.00000000e+00  1.00000000e+00
  1.00000000e+00  1.00000000e+00  1.83470016e-03  1.40373012e-02  6.88426061e-02
  2.32184421e-01  4.67941342e-01  3.62312032e-01 -1.19332409e-01 -1.60854212e-01
  1.14345648e+00  6.89990956e-02  3.16423980e-01  7.44308252e-01  1.00000000e+00
  1.00000000e+00  1.00000000e+00  1.00000000e+00  1.00000000e+00  1.83470016e-03
  1.40373012e-02  6.88426061e-02  2.32184421e-01  4.67941342e-01  3.62312032e-01
 -1.19332409e-01 -1.60854212e-01  1.14345648e+00  6.89990956e-02  3.16423980e-01
  7.44308252e-01  1.00000000e+00  1.00000000e+00  1.00000000e+00  1.00000000e+00
  1.00000000e+00  1.83470016e-03  1.40373012e-02  6.88426061e-02  2.32184421e-01
  4.67941342e-01  3.62312032e-01 -1.19332409e-01 -1.60854212e-01  1.14345648e+00
  6.89990956e-02  3.16423980e-01  7.44308252e-01  1.00000000e+00  1.00000000e+00
  1.00000000e+00  1.00000000e+00  1.00000000e+00  1.83470016e-03  1.40373012e-02
  6.88426061e-02  2.32184421e-01  4.67941342e-01  3.62312032e-01 -1.19332409e-01
 -1.60854212e-01  1.14345648e+00  6.89990956e-02  3.16423980e-01  7.44308252e-01
  1.00000000e+00  1.00000000e+00  1.00000000e+00  1.00000000e+00  1.00000000e+00
  1.83470016e-03  1.40373012e-02  6.88426061e-02  2.32184421e-01  4.67941342e-01
  3.62312032e-01 -1.19332409e-01 -1.60854212e-01  1.14345648e+00  6.89990956e-02
  3.16423980e-01  7.44308252e-01  1.00000000e+00  1.00000000e+00  1.00000000e+00
  1.00000000e+00  1.00000000e+00  1.83470016e-03  1.40373012e-02  6.88426061e-02
  2.32184421e-01  4.67941342e-01  3.62312032e-01 -1.19332409e-01 -1.60854212e-01
  1.14345648e+00  6.89990956e-02  3.16423980e-01  7.44308252e-01  1.00000000e+00
  1.00000000e+00  1.00000000e+00  1.00000000e+00  1.00000000e+00  3.34945995e-02
  2.34726947e-01  8.13757318e-01  1.00000000e+00  3.34945995e-02  2.34726947e-01
  8.13757318e-01  1.00000000e+00  3.34945995e-02  2.34726947e-01  8.13757318e-01
  1.00000000e+00  3.34945995e-02  2.34726947e-01  8.13757318e-01  1.00000000e+00
  1.83479944e-03  1.39949958e-02  6.85869792e-02  2.32240930e-01  4.69069858e-01
  3.60454891e-01 -1.14961023e-01 -1.69118034e-01  1.14585223e+00  6.75800232e-02
  3.23907111e-01  7.40895255e-01  1.00000000e+00  1.00000000e+00  1.00000000e+00
  1.00000000e+00  1.00000000e+00  1.83470016e-03  1.40373012e-02  6.88426061e-02
  2.32184421e-01  4.67941342e-01  3.62312032e-01 -1.19332409e-01 -1.60854212e-01
  1.14345648e+00  6.89990956e-02  3.16423980e-01  7.44308252e-01  1.00000000e+00
  1.00000000e+00  1.00000000e+00  1.00000000e+00  1.00000000e+00  1.83470016e-03
  1.40373012e-02  6.88426061e-02  2.32184421e-01  4.67941342e-01  3.62312032e-01
 -1.19332409e-01 -1.60854212e-01  1.14345648e+00  6.89990956e-02  3.16423980e-01
  7.44308252e-01  1.00000000e+00  1.00000000e+00  1.00000000e+00  1.00000000e+00
  1.00000000e+00  1.83470016e-03  1.40373012e-02  6.88426061e-02  2.32184421e-01
  4.67941342e-01  3.62312032e-01 -1.19332409e-01 -1.60854212e-01  1.14345648e+00
  6.89990956e-02  3.16423980e-01  7.44308252e-01  1.00000000e+00  1.00000000e+00
  1.00000000e+00  1.00000000e+00  1.00000000e+00  1.83470016e-03  1.40373012e-02
  6.88426061e-02  2.32184421e-01  4.67941342e-01  3.62312032e-01 -1.19332409e-01
 -1.60854212e-01  1.14345648e+00  6.89990956e-02  3.16423980e-01  7.44308252e-01
  1.00000000e+00  1.00000000e+00  1.00000000e+00  1.00000000e+00  1.00000000e+00
  1.83470016e-03  1.40373012e-02  6.88426061e-02  2.32184421e-01  4.67941342e-01
  3.62312032e-01 -1.19332409e-01 -1.60854212e-01  1.14345648e+00  6.89990956e-02
  3.16423980e-01  7.44308252e-01  1.00000000e+00  1.00000000e+00  1.00000000e+00
  1.00000000e+00  1.00000000e+00  1.83470016e-03  1.40373012e-02  6.88426061e-02
  2.32184421e-01  4.67941342e-01  3.62312032e-01 -1.19332409e-01 -1.60854212e-01
  1.14345648e+00  6.89990956e-02  3.16423980e-01  7.44308252e-01  1.00000000e+00
  1.00000000e+00  1.00000000e+00  1.00000000e+00  1.00000000e+00  1.83470016e-03
  1.40373012e-02  6.88426061e-02  2.32184421e-01  4.67941342e-01  3.62312032e-01
 -1.19332409e-01 -1.60854212e-01  1.14345648e+00  6.89990956e-02  3.16423980e-01
  7.44308252e-01  1.00000000e+00  1.00000000e+00  1.00000000e+00  1.00000000e+00
  1.00000000e+00  3.34945995e-02  2.34726947e-01  8.13757318e-01  1.00000000e+00
  3.34945995e-02  2.34726947e-01  8.13757318e-01  1.00000000e+00  3.34945995e-02
  2.34726947e-01  8.13757318e-01  1.00000000e+00  3.34945995e-02  2.34726947e-01
  8.13757318e-01  1.00000000e+00  3.34945995e-02  2.34726947e-01  8.13757318e-01
  1.00000000e+00  3.34945995e-02  2.34726947e-01  8.13757318e-01  1.00000000e+00
  3.34945995e-02  2.34726947e-01  8.13757318e-01  1.00000000e+00  3.34945995e-02
  2.34726947e-01  8.13757318e-01  1.00000000e+00  3.34945995e-02  2.34726947e-01
  8.13757318e-01  1.00000000e+00  1.83109981e-03  1.39500985e-02  6.84450927e-02
  2.32714275e-01  4.70192950e-01  3.58520862e-01 -1.10777504e-01 -1.48026305e-01
  1.13076704e+00  7.08742995e-02  3.39752798e-01  7.27158595e-01  1.00000000e+00
  1.00000000e+00  1.00000000e+00  1.00000000e+00  1.00000000e+00  1.83470016e-03
  1.40373012e-02  6.88426061e-02  2.32184421e-01  4.67941342e-01  3.62312032e-01
 -1.19332409e-01 -1.60854212e-01  1.14345648e+00  6.89990956e-02  3.16423980e-01
  7.44308252e-01  1.00000000e+00  1.00000000e+00  1.00000000e+00  1.00000000e+00
  1.00000000e+00  3.34945995e-02  2.34726947e-01  8.13757318e-01  1.00000000e+00
  3.34945995e-02  2.34726947e-01  8.13757318e-01  1.00000000e+00  3.34945995e-02
  2.34726947e-01  8.13757318e-01  1.00000000e+00  1.83470016e-03  1.40373012e-02
  6.88426061e-02  2.32184421e-01  4.67941342e-01  3.62312032e-01 -1.19332409e-01
 -1.60854212e-01  1.14345648e+00  6.89990956e-02  3.16423980e-01  7.44308252e-01
  1.00000000e+00  1.00000000e+00  1.00000000e+00  1.00000000e+00  1.00000000e+00
  3.34945995e-02  2.34726947e-01  8.13757318e-01  1.00000000e+00  3.34945995e-02
  2.34726947e-01  8.13757318e-01  1.00000000e+00  3.34945995e-02  2.34726947e-01
  8.13757318e-01  1.00000000e+00  3.34945995e-02  2.34726947e-01  8.13757318e-01
  1.00000000e+00  3.34945995e-02  2.34726947e-01  8.13757318e-01  1.00000000e+00
Coordinates of each shell                  R   N=         558
  4.51998751e+00 -2.58028374e+00 -3.46899912e+00  4.51998751e+00 -2.58028374e+00
 -3.46899912e+00  4.51998751e+00 -2.58028374e+00 -3.46899912e+00  4.51998751e+00
 -2.58028374e+00 -3.46899912e+00  4.51998751e+00 -2.58028374e+00 -3.46899912e+00
  4.51998751e+00 -2.58028374e+00 -3.46899912e+00  4.51998751e+00 -2.58028374e+00
 -3.46899912e+00  4.51998751e+00 -2.58028374e+00 -3.46899912e+00  6.73734259e-01
 -3.23626879e-01 -2.35098837e+00  6.73734259e-01 -3.23626879e-01 -2.35098837e+00
  6.73734259e-01 -3.23626879e-01 -2.35098837e+00  6.73734259e-01 -3.23626879e-01
 -2.35098837e+00  6.73734259e-01 -3.23626879e-01 -2.35098837e+00  6.73734259e-01
 -3.23626879e-01 -2.35098837e+00  6.73734259e-01 -3.23626879e-01 -2.35098837e+00
  6.73734259e-01 -3.23626879e-01 -2.35098837e+00  3.56772559e+00 -5.87671488e-01
 -2.81092734e+00  3.56772559e+00 -5.87671488e-01 -2.81092734e+00  3.56772559e+00
 -5.87671488e-01 -2.81092734e+00  3.56772559e+00 -5.87671488e-01 -2.81092734e+00
  3.56772559e+00 -5.87671488e-01 -2.81092734e+00  3.56772559e+00 -5.87671488e-01
 -2.81092734e+00  3.56772559e+00 -5.87671488e-01 -2.81092734e+00  3.56772559e+00
 -5.87671488e-01 -2.81092734e+00  5.15894628e+00  1.82360491e+00 -2.68546055e+00
  5.15894628e+00  1.82360491e+00 -2.68546055e+00  5.15894628e+00  1.82360491e+00
 -2.68546055e+00  5.15894628e+00  1.82360491e+00 -2.68546055e+00  5.15894628e+00
  1.82360491e+00 -2.68546055e+00  5.15894628e+00  1.82360491e+00 -2.68546055e+00
  5.15894628e+00  1.82360491e+00 -2.68546055e+00  5.15894628e+00  1.82360491e+00
 -2.68546055e+00  3.75822468e+00  4.13973213e+00 -1.65716902e+00  3.75822468e+00
  4.13973213e+00 -1.65716902e+00  3.75822468e+00  4.13973213e+00 -1.65716902e+00
  3.75822468e+00  4.13973213e+00 -1.65716902e+00  3.75822468e+00  4.13973213e+00
 -1.65716902e+00  3.75822468e+00  4.13973213e+00 -1.65716902e+00  3.75822468e+00
  4.13973213e+00 -1.65716902e+00  3.75822468e+00  4.13973213e+00 -1.65716902e+00
  1.19773484e+00  4.56299764e+00 -2.99905510e+00  1.19773484e+00  4.56299764e+00
 -2.99905510e+00  1.19773484e+00  4.56299764e+00 -2.99905510e+00  1.19773484e+00
  4.56299764e+00 -2.99905510e+00  1.19773484e+00  4.56299764e+00 -2.99905510e+00
  1.19773484e+00  4.56299764e+00 -2.99905510e+00  1.19773484e+00  4.56299764e+00
 -2.99905510e+00  1.19773484e+00  4.56299764e+00 -2.99905510e+00 -6.26945488e-02
  2.08032428e+00 -3.89088819e+00 -6.26945488e-02  2.08032428e+00 -3.89088819e+00
 -6.26945488e-02  2.08032428e+00 -3.89088819e+00 -6.26945488e-02  2.08032428e+00
 -3.89088819e+00 -6.26945488e-02  2.08032428e+00 -3.89088819e+00 -6.26945488e-02
  2.08032428e+00 -3.89088819e+00 -6.26945488e-02  2.08032428e+00 -3.89088819e+00
 -6.26945488e-02  2.08032428e+00 -3.89088819e+00  1.45698890e+00  5.79430536e+00
 -4.64785026e+00  1.45698890e+00  5.79430536e+00 -4.64785026e+00 -7.04588384e-02
  5.57695506e+00 -1.71331177e+00 -7.04588384e-02  5.57695506e+00 -1.71331177e+00
 -2.12261345e+00  2.24821585e+00 -3.89580624e+00 -2.12261345e+00  2.24821585e+00
 -3.89580624e+00  4.63928253e-01  1.69858026e+00 -5.86461477e+00  4.63928253e-01
  1.69858026e+00 -5.86461477e+00 -7.86687533e-01 -2.43886341e+00 -3.41053685e+00
 -7.86687533e-01 -2.43886341e+00 -3.41053685e+00 -7.86687533e-01 -2.43886341e+00
 -3.41053685e+00 -7.86687533e-01 -2.43886341e+00 -3.41053685e+00 -7.86687533e-01
 -2.43886341e+00 -3.41053685e+00 -7.86687533e-01 -2.43886341e+00 -3.41053685e+00
 -7.86687533e-01 -2.43886341e+00 -3.41053685e+00 -7.86687533e-01 -2.43886341e+00
 -3.41053685e+00 -7.73150769e-01 -4.87956501e+00 -2.07303133e+00 -7.73150769e-01
 -4.87956501e+00 -2.07303133e+00 -7.73150769e-01 -4.87956501e+00 -2.07303133e+00
 -7.73150769e-01 -4.87956501e+00 -2.07303133e+00 -7.73150769e-01 -4.87956501e+00
 -2.07303133e+00 -7.73150769e-01 -4.87956501e+00 -2.07303133e+00 -7.73150769e-01
 -4.87956501e+00 -2.07303133e+00 -7.73150769e-01 -4.87956501e+00 -2.07303133e+00
  8.60404673e-02 -5.29279800e-02  4.81281033e-01  8.60404673e-02 -5.29279800e-02
  4.81281033e-01  8.60404673e-02 -5.29279800e-02  4.81281033e-01  8.60404673e-02
 -5.29279800e-02  4.81281033e-01  8.60404673e-02 -5.29279800e-02  4.81281033e-01
  8.60404673e-02 -5.29279800e-02  4.81281033e-01  8.60404673e-02 -5.29279800e-02
  4.81281033e-01  8.60404673e-02 -5.29279800e-02  4.81281033e-01 -2.21675933e+00
  9.80302308e-01  1.24714385e+00 -2.21675933e+00  9.80302308e-01  1.24714385e+00
 -2.21675933e+00  9.80302308e-01  1.24714385e+00 -2.21675933e+00  9.80302308e-01
  1.24714385e+00 -2.21675933e+00  9.80302308e-01  1.24714385e+00 -2.21675933e+00
  9.80302308e-01  1.24714385e+00 -2.21675933e+00  9.80302308e-01  1.24714385e+00
 -2.21675933e+00  9.80302308e-01  1.24714385e+00 -2.83500394e+00  1.18557646e+00
  3.81563018e+00 -2.83500394e+00  1.18557646e+00  3.81563018e+00 -2.83500394e+00