Generated by Psi4
     FORCE                           RHF                       TESTBAS
Number of atoms                            I               24
Charge                                     I                0
Multiplicity                               I                1
Number of electrons                        I               94
Number of alpha electrons                  I               47
Number of beta electrons                   I               47
Number of basis functions                  I              269
Number of independent functions            I              269
Atomic numbers                             I   N=          24
           6           6           6           6           6           6
           1           1           8           6           8           1
           1           6           6           6           1           1
           1           1           7           1           1           1
Nuclear charges                            R   N=          24
  6.00000000e+00  6.00000000e+00  6.00000000e+00  6.00000000e+00  6.00000000e+00
  6.00000000e+00  1.00000000e+00  1.00000000e+00  8.00000000e+00  6.00000000e+00
  8.00000000e+00  1.00000000e+00  1.00000000e+00  6.00000000e+00  6.00000000e+00
  6.00000000e+00  1.00000000e+00  1.00000000e+00  1.00000000e+00  1.00000000e+00
  7.00000000e+00  1.00000000e+00  1.00000000e+00  1.00000000e+00
Current cartesian coordinates              R   N=          72
 -1.87976438e+00  6.43214757e-01  2.67440675e-01  1.38260658e-01  3.25169863e-01
  1.95966072e+00  2.48819440e+00 -6.21637381e-01  1.16139039e+00  2.67997771e+00
 -1.22108135e+00 -1.37670544e+00  6.74647479e-01 -9.02234556e-01 -3.05937073e+00
 -1.64783170e+00  3.56380180e-02 -2.30838009e+00  4.07440727e+00 -8.58619942e-01
  2.44192093e+00 -3.18346081e+00  2.92375609e-01 -3.64560237e+00  1.45797751e+00
 -1.54210924e+00 -5.46641078e+00  3.82396537e+00 -2.80594781e+00 -5.10689205e+00
  4.77509568e+00 -2.06967844e+00 -2.68255601e+00  5.14785012e+00 -2.21465849e+00
 -6.57224110e+00  3.51466415e+00 -4.86214292e+00 -5.12786479e+00 -4.17623959e+00
  1.63405962e+00  1.65390484e+00 -6.51313522e-01  1.08627081e+00  4.59927100e+00
 -3.03234519e+00  2.72305117e+00  4.14081231e+00 -5.49504640e+00  8.59568088e-02
  2.10730327e+00 -5.25100371e+00  3.04906517e+00  5.84277652e-01  8.05803916e-01
  2.10671427e+00  5.65859564e+00 -1.15639987e+00 -5.86658349e-01  5.73425191e+00
 -4.65057059e+00  2.86284965e+00  6.37203909e+00 -2.39904919e+00  4.65901155e+00
  3.74418446e+00 -5.39524727e+00  1.13575664e+00  6.79130997e+00 -6.12730993e+00
  4.06294587e+00  6.08488425e+00
Integer atomic weights                     I   N=          24
          12          12          12          12          12          12
           1           1          15          12          15           1
           1          12          12          12           1           1
           1           1          14           1           1           1
Real atomic weights                        R   N=          24
  1.20000000e+01  1.20000000e+01  1.20000000e+01  1.20000000e+01  1.20000000e+01
  1.20000000e+01  1.00782503e+00  1.00782503e+00  1.59949146e+01  1.20000000e+01
  1.59949146e+01  1.00782503e+00  1.00782503e+00  1.20000000e+01  1.20000000e+01
  1.20000000e+01  1.00782503e+00  1.00782503e+00  1.00782503e+00  1.00782503e+00
  1.40030740e+01  1.00782503e+00  1.00782503e+00  1.00782503e+00
Number of primitive shells                 I              265
Number of contracted shells                I              126
Pure/Cartesian d shells                    I                1
Pure/Cartesian f shells                    I                1
Highest angular momentum                   I                2
Largest degree of contraction              I                6
Shell types                                I   N=         126
           0           0           1           0           1           2
           0           1           0           0           1           0
           1           2           0           1           0           0
           1           0           1           2           0           1
           0           0           1           0           1           2
           0           1           0           0           1           0
           1           2           0           1           0           0
           1           0           1           2           0           1
           0           0           0           0           0           0
           1           0           1           2           0           1
           0           0           1           0           1           2
           0           1           0           0           1           0
           1           2           0           1           0           0
           0           0           0           0           1           0
           1           2           0           1           0           0
           1           0           1           2           0           1
           0           0           1           0           1           2
           0           1           0           0           0           0
           0           0           0           0           0           0
           1           0           1           2           0           1
           0           0           0           0           0           0
Number of primitives per shell             I   N=         126
           6           3           3           1           1           1
           1           1           6           3           3           1
           1           1           1           1           6           3
           3           1           1           1           1           1
           6           3           3           1           1           1
           1           1           6           3           3           1
           1           1           1           1           6           3
           3           1           1           1           1           1
           3           1           3           1           6           3
           3           1           1           1           1           1
           6           3           3           1           1           1
           1           1           6           3           3           1
           1           1           1           1           3           1
           3           1           6           3           3           1
           1           1           1           1           6           3
           3           1           1           1           1           1
           6           3           3           1           1           1
           1           1           3           1           3           1
           3           1           3           1           6           3
           3           1           1           1           1           1
           3           1           3           1           3           1
Shell to atom map                          I   N=         126
           1           1           1           1           1           1
           1           1           2           2           2           2
           2           2           2           2           3           3
           3           3           3           3           3           3
           4           4           4           4           4           4
           4           4           5           5           5           5
           5           5           5           5           6           6
           6           6           6           6           6           6
           7           7           8           8           9           9
           9           9           9           9           9           9
          10          10          10          10          10          10
          10          10          11          11          11          11
          11          11          11          11          12          12
          13          13          14          14          14          14
          14          14          14          14          15          15
          15          15          15          15          15          15
          16          16          16          16          16          16
          16          16          17          17          18          18
          19          19          20          20          21          21
          21          21          21          21          21          21
          22          22          23          23          24          24
Primitive exponents                        R   N=         265
  3.04752490e+03  4.57369510e+02  1.03948690e+02  2.92101550e+01  9.28666300e+00
  3.16392700e+00  7.86827240e+00  1.88128850e+00  5.44249300e-01  7.86827240e+00
  1.88128850e+00  5.44249300e-01  1.68714400e-01  1.68714400e-01  8.00000000e-01
  4.38000000e-02  4.38000000e-02  3.04752490e+03  4.57369510e+02  1.03948690e+02
  2.92101550e+01  9.28666300e+00  3.16392700e+00  7.86827240e+00  1.88128850e+00
  5.44249300e-01  7.86827240e+00  1.88128850e+00  5.44249300e-01  1.68714400e-01
  1.68714400e-01  8.00000000e-01  4.38000000e-02  4.38000000e-02  3.04752490e+03
  4.57369510e+02  1.03948690e+02  2.92101550e+01  9.28666300e+00  3.16392700e+00
  7.86827240e+00  1.88128850e+00  5.44249300e-01  7.86827240e+00  1.88128850e+00
  5.44249300e-01  1.68714400e-01  1.68714400e-01  8.00000000e-01  4.38000000e-02
  4.38000000e-02  3.04752490e+03  4.57369510e+02  1.03948690e+02  2.92101550e+01
  9.28666300e+00  3.16392700e+00  7.86827240e+00  1.88128850e+00  5.44249300e-01
  7.86827240e+00  1.88128850e+00  5.44249300e-01  1.68714400e-01  1.68714400e-01
  8.00000000e-01  4.38000000e-02  4.38000000e-02  3.04752490e+03  4.57369510e+02
  1.03948690e+02  2.92101550e+01  9.28666300e+00  3.16392700e+00  7.86827240e+00
  1.88128850e+00  5.44249300e-01  7.86827240e+00  1.88128850e+00  5.44249300e-01
  1.68714400e-01  1.68714400e-01  8.00000000e-01  4.38000000e-02  4.38000000e-02
  3.04752490e+03  4.57369510e+02  1.03948690e+02  2.92101550e+01  9.28666300e+00
  3.16392700e+00  7.86827240e+00  1.88128850e+00  5.44249300e-01  7.86827240e+00
  1.88128850e+00  5.44249300e-01  1.68714400e-01  1.68714400e-01  8.00000000e-01
  4.38000000e-02  4.38000000e-02  1.87311370e+01  2.82539370e+00  6.40121700e-01
  1.61277800e-01  1.87311370e+01  2.82539370e+00  6.40121700e-01  1.61277800e-01
  5.48467170e+03  8.25234950e+02  1.88046960e+02  5.29645000e+01  1.68975700e+01
  5.79963530e+00  1.55396160e+01  3.59993360e+00  1.01376180e+00  1.55396160e+01
  3.59993360e+00  1.01376180e+00  2.70005800e-01  2.70005800e-01  8.00000000e-01
  8.45000000e-02  8.45000000e-02  3.04752490e+03  4.57369510e+02  1.03948690e+02
  2.92101550e+01  9.28666300e+00  3.16392700e+00  7.86827240e+00  1.88128850e+00
  5.44249300e-01  7.86827240e+00  1.88128850e+00  5.44249300e-01  1.68714400e-01
  1.68714400e-01  8.00000000e-01  4.38000000e-02  4.38000000e-02  5.48467170e+03
  8.25234950e+02  1.88046960e+02  5.29645000e+01  1.68975700e+01  5.79963530e+00
  1.55396160e+01  3.59993360e+00  1.01376180e+00  1.55396160e+01  3.59993360e+00
  1.01376180e+00  2.70005800e-01  2.70005800e-01  8.00000000e-01  8.45000000e-02
  8.45000000e-02  1.87311370e+01  2.82539370e+00  6.40121700e-01  1.61277800e-01
  1.87311370e+01  2.82539370e+00  6.40121700e-01  1.61277800e-01  3.04752490e+03
  4.57369510e+02  1.03948690e+02  2.92101550e+01  9.28666300e+00  3.16392700e+00
  7.86827240e+00  1.88128850e+00  5.44249300e-01  7.86827240e+00  1.88128850e+00
  5.44249300e-01  1.68714400e-01  1.68714400e-01  8.00000000e-01  4.38000000e-02
  4.38000000e-02  3.04752490e+03  4.57369510e+02  1.03948690e+02  2.92101550e+01
  9.28666300e+00  3.16392700e+00  7.86827240e+00  1.88128850e+00  5.44249300e-01
  7.86827240e+00  1.88128850e+00  5.44249300e-01  1.68714400e-01  1.68714400e-01
  8.00000000e-01  4.38000000e-02  4.38000000e-02  3.04752490e+03  4.57369510e+02
  1.03948690e+02  2.92101550e+01  9.28666300e+00  3.16392700e+00  7.86827240e+00
  1.88128850e+00  5.44249300e-01  7.86827240e+00  1.88128850e+00  5.44249300e-01
  1.68714400e-01  1.68714400e-01  8.00000000e-01  4.38000000e-02  4.38000000e-02
  1.87311370e+01  2.82539370e+00  6.40121700e-01  1.61277800e-01  1.87311370e+01
  2.82539370e+00  6.40121700e-01  1.61277800e-01  1.87311370e+01  2.82539370e+00
  6.40121700e-01  1.61277800e-01  1.87311370e+01  2.82539370e+00  6.40121700e-01
  1.61277800e-01  4.17351100e+03  6.27457900e+02  1.42902100e+02  4.02343300e+01
  1.28202100e+01  4.39043700e+00  1.16263580e+01  2.71628000e+00  7.72218000e-01
  1.16263580e+01  2.71628000e+00  7.72218000e-01  2.12031300e-01  2.12031300e-01
  8.00000000e-01  6.39000000e-02  6.39000000e-02  1.87311370e+01  2.82539370e+00
  6.40121700e-01  1.61277800e-01  1.87311370e+01  2.82539370e+00  6.40121700e-01
  1.61277800e-01  1.87311370e+01  2.82539370e+00  6.40121700e-01  1.61277800e-01
Contraction coefficients                   R   N=         265
  1.83470016e-03  1.40373012e-02  6.88426061e-02  2.32184421e-01  4.67941342e-01
  3.62312032e-01 -1.19332409e-01 -1.60854212e-01  1.14345648e+00  6.89990956e-02
  3.16423980e-01  7.44308252e-01  1.00000000e+00  1.00000000e+00  1.00000000e+00
  1.00000000e+00  1.00000000e+00  1.83470016e-03  1.40373012e-02  6.88426061e-02
  2.32184421e-01  4.67941342e-01  3.62312032e-01 -1.19332409e-01 -1.60854212e-01
  1.14345648e+00  6.89990956e-02  3.16423980e-01  7.44308252e-01  1.00000000e+00
  1.00000000e+00  1.00000000e+00  1.00000000e+00  1.00000000e+00  1.83470016e-03
  1.40373012e-02  6.88426061e-02  2.32184421e-01  4.67941342e-01  3.62312032e-01
 -1.19332409e-01 -1.60854212e-01  1.14345648e+00  6.89990956e-02  3.16423980e-01
  7.44308252e-01  1.00000000e+00  1.00000000e+00  1.00000000e+00  1.00000000e+00
  1.00000000e+00  1.83470016e-03  1.40373012e-02  6.88426061e-02  2.32184421e-01
  4.67941342e-01  3.62312032e-01 -1.19332409e-01 -1.60854212e-01  1.14345648e+00
  6.89990956e-02  3.16423980e-01  7.44308252e-01  1.00000000e+00  1.00000000e+00
  1.00000000e+00  1.00000000e+00  1.00000000e+00  1.83470016e-03  1.40373012e-02
  6.88426061e-02  2.32184421e-01  4.67941342e-01  3.62312032e-01 -1.19332409e-01
 -1.60854212e-01  1.14345648e+00  6.89990956e-02  3.16423980e-01  7.44308252e-01
  1.00000000e+00  1.00000000e+00  1.00000000e+00  1.00000000e+00  1.00000000e+00
  1.83470016e-03  1.40373012e-02  6.88426061e-02  2.32184421e-01  4.67941342e-01
  3.62312032e-01 -1.19332409e-01 -1.60854212e-01  1.14345648e+00  6.89990956e-02
  3.16423980e-01  7.44308252e-01  1.00000000e+00  1.00000000e+00  1.00000000e+00
  1.00000000e+00  1.00000000e+00  3.34945995e-02  2.34726947e-01  8.13757318e-01
  1.00000000e+00  3.34945995e-02  2.34726947e-01  8.13757318e-01  1.00000000e+00
  1.83109981e-03  1.39500985e-02  6.84450927e-02  2.32714275e-01  4.70192950e-01
  3.58520862e-01 -1.10777504e-01 -1.48026305e-01  1.13076704e+00  7.08742995e-02
  3.39752798e-01  7.27158595e-01  1.00000000e+00  1.00000000e+00  1.00000000e+00
  1.00000000e+00  1.00000000e+00  1.83470016e-03  1.40373012e-02  6.88426061e-02
  2.32184421e-01  4.67941342e-01  3.62312032e-01 -1.19332409e-01 -1.60854212e-01
  1.14345648e+00  6.89990956e-02  3.16423980e-01  7.44308252e-01  1.00000000e+00
  1.00000000e+00  1.00000000e+00  1.00000000e+00  1.00000000e+00  1.83109981e-03
  1.39500985e-02  6.84450927e-02  2.32714275e-01  4.70192950e-01  3.58520862e-01
 -1.10777504e-01 -1.48026305e-01  1.13076704e+00  7.08742995e-02  3.39752798e-01
  7.27158595e-01  1.00000000e+00  1.00000000e+00  1.00000000e+00  1.00000000e+00
  1.00000000e+00  3.34945995e-02  2.34726947e-01  8.13757318e-01  1.00000000e+00
  3.34945995e-02  2.34726947e-01  8.13757318e-01  1.00000000e+00  1.83470016e-03
  1.40373012e-02  6.88426061e-02  2.32184421e-01  4.67941342e-01  3.62312032e-01
 -1.19332409e-01 -1.60854212e-01  1.14345648e+00  6.89990956e-02  3.16423980e-01
  7.44308252e-01  1.00000000e+00  1.00000000e+00  1.00000000e+00  1.00000000e+00
  1.00000000e+00  1.83470016e-03  1.40373012e-02  6.88426061e-02  2.32184421e-01
  4.67941342e-01  3.62312032e-01 -1.19332409e-01 -1.60854212e-01  1.14345648e+00
  6.89990956e-02  3.16423980e-01  7.44308252e-01  1.00000000e+00  1.00000000e+00
  1.00000000e+00  1.00000000e+00  1.00000000e+00  1.83470016e-03  1.40373012e-02
  6.88426061e-02  2.32184421e-01  4.67941342e-01  3.62312032e-01 -1.19332409e-01
 -1.60854212e-01  1.14345648e+00  6.89990956e-02  3.16423980e-01  7.44308252e-01
  1.00000000e+00  1.00000000e+00  1.00000000e+00  1.00000000e+00  1.00000000e+00
  3.34945995e-02  2.34726947e-01  8.13757318e-01  1.00000000e+00  3.34945995e-02
  2.34726947e-01  8.13757318e-01  1.00000000e+00  3.34945995e-02  2.34726947e-01
  8.13757318e-01  1.00000000e+00  3.34945995e-02  2.34726947e-01  8.13757318e-01
  1.00000000e+00  1.83479944e-03  1.39949958e-02  6.85869792e-02  2.32240930e-01
  4.69069858e-01  3.60454891e-01 -1.14961023e-01 -1.69118034e-01  1.14585223e+00
  6.75800232e-02  3.23907111e-01  7.40895255e-01  1.00000000e+00  1.00000000e+00
  1.00000000e+00  1.00000000e+00  1.00000000e+00  3.34945995e-02  2.34726947e-01
  8.13757318e-01  1.00000000e+00  3.34945995e-02  2.34726947e-01  8.13757318e-01
  1.00000000e+00  3.34945995e-02  2.34726947e-01  8.13757318e-01  1.00000000e+00
Coordinates of each shell                  R   N=         378
 -1.87976438e+00  6.43214757e-01  2.67440675e-01 -1.87976438e+00  6.43214757e-01
  2.67440675e-01 -1.87976438e+00  6.43214757e-01  2.67440675e-01 -1.87976438e+00
  6.43214757e-01  2.67440675e-01 -1.87976438e+00  6.43214757e-01  2.67440675e-01
 -1.87976438e+00  6.43214757e-01  2.67440675e-01 -1.87976438e+00  6.43214757e-01
  2.67440675e-01 -1.87976438e+00  6.43214757e-01  2.67440675e-01  1.38260658e-01
  3.25169863e-01  1.95966072e+00  1.38260658e-01  3.25169863e-01  1.95966072e+00
  1.38260658e-01  3.25169863e-01  1.95966072e+00  1.38260658e-01  3.25169863e-01
  1.95966072e+00  1.38260658e-01  3.25169863e-01  1.95966072e+00  1.38260658e-01
  3.25169863e-01  1.95966072e+00  1.38260658e-01  3.25169863e-01  1.95966072e+00
  1.38260658e-01  3.25169863e-01  1.95966072e+00  2.48819440e+00 -6.21637381e-01
  1.16139039e+00  2.48819440e+00 -6.21637381e-01  1.16139039e+00  2.48819440e+00
 -6.21637381e-01  1.16139039e+00  2.48819440e+00 -6.21637381e-01  1.16139039e+00
  2.48819440e+00 -6.21637381e-01  1.16139039e+00  2.48819440e+00 -6.21637381e-01
  1.16139039e+00  2.48819440e+00 -6.21637381e-01  1.16139039e+00  2.48819440e+00
 -6.21637381e-01  1.16139039e+00  2.67997771e+00 -1.22108135e+00 -1.37670544e+00
  2.67997771e+00 -1.22108135e+00 -1.37670544e+00  2.67997771e+00 -1.22108135e+00
 -1.37670544e+00  2.67997771e+00 -1.22108135e+00 -1.37670544e+00  2.67997771e+00
 -1.22108135e+00 -1.37670544e+00  2.67997771e+00 -1.22108135e+00 -1.37670544e+00
  2.67997771e+00 -1.22108135e+00 -1.37670544e+00  2.67997771e+00 -1.22108135e+00
 -1.37670544e+00  6.74647479e-01 -9.02234556e-01 -3.05937073e+00  6.74647479e-01
 -9.02234556e-01 -3.05937073e+00  6.74647479e-01 -9.02234556e-01 -3.05937073e+00
  6.74647479e-01 -9.02234556e-01 -3.05937073e+00  6.74647479e-01 -9.02234556e-01
 -3.05937073e+00  6.74647479e-01 -9.02234556e-01 -3.05937073e+00  6.74647479e-01
 -9.02234556e-01 -3.05937073e+00  6.74647479e-01 -9.02234556e-01 -3.05937073e+00
 -1.64783170e+00  3.56380180e-02 -2.30838009e+00 -1.64783170e+00  3.56380180e-02
 -2.30838009e+00 -1.64783170e+00  3.56380180e-02 -2.30838009e+00 -1.64783170e+00
  3.56380180e-02 -2.30838009e+00 -1.64783170e+00  3.56380180e-02 -2.30838009e+00
 -1.64783170e+00  3.56380180e-02 -2.30838009e+00 -1.64783170e+00  3.56380180e-02
 -2.30838009e+00 -1.64783170e+00  3.56380180e-02 -2.30838009e+00  4.07440727e+00
 -8.58619942e-01  2.44192093e+00  4.07440727e+00 -8.58619942e-01  2.44192093e+00
 -3.18346081e+00  2.92375609e-01 -3.64560237e+00 -3.18346081e+00  2.92375609e-01
 -3.64560237e+00  1.45797751e+00 -1.54210924e+00 -5.46641078e+00  1.45797751e+00
 -1.54210924e+00 -5.46641078e+00  1.45797751e+00 -1.54210924e+00 -5.46641078e+00
  1.45797751e+00 -1.54210924e+00 -5.46641078e+00  1.45797751e+00 -1.54210924e+00
 -5.46641078e+00  1.45797751e+00 -1.54210924e+00 -5.46641078e+00  1.45797751e+00
 -1.54210924e+00 -5.46641078e+00  1.45797751e+00 -1.54210924e+00 -5.46641078e+00
  3.82396537e+00 -2.80594781e+00 -5.10689205e+00  3.82396537e+00 -2.80594781e+00
 -5.10689205e+00  3.82396537e+00 -2.80594781e+00 -5.10689205e+00  3.82396537e+00
 -2.80594781e+00 -5.10689205e+00  3.82396537e+00 -2.80594781e+00 -5.10689205e+00
  3.82396537e+00 -2.80594781e+00 -5.10689205e+00  3.82396537e+00 -2.80594781e+00
 -5.10689205e+00  3.82396537e+00 -2.80594781e+00 -5.10689205e+00  4.77509568e+00
 -2.06967844e+00 -2.68255601e+00  4.77509568e+00 -2.06967844e+00 -2.68255601e+00
  4.77509568e+00 -2.06967844e+00 -2.68255601e+00  4.77509568e+00 -2.06967844e+00
 -2.68255601e+00  4.77509568e+00 -2.06967844e+00 -2.68255601e+00  4.77509568e+00
 -2.06967844e+00 -2.68255601e+00  4.77509568e+00 -2.06967844e+00 -2.68255601e+00
  4.77509568e+00 -2.06967844e+00 -2.68255601e+00  5.14785012e+00 -2.21465849e+00
 -6.57224110e+00  5.14785012e+00 -2.21465849e+00 -6.57224110e+00  3.51466415e+00
 -4.86214292e+00 -5.12786479e+00  3.51466415e+00 -4.86214292e+00 -5.12786479e+00
 -4.17623959e+00  1.63405962e+00  1.65390484e+00 -4.17623959e+00  1.63405962e+00
  1.65390484e+00 -4.17623959e+00  1.63405962e+00  1.65390484e+00 -4.17623959e+00
  1.63405962e+00  1.65390484e+00 -4.17623959e+00  1.63405962e+00  1.65390484e+00
 -4.17623959e+00  1.63405962e+00  1.65390484e+00 -4.17623959e+00  1.63405962e+00
  1.65390484e+00 -4.17623959e+00  1.63405962e+00  1.65390484e+00 -6.51313522e-01
  1.08627081e+00  4.59927100e+00 -6.51313522e-01  1.08627081e+00  4.59927100e+00
 -6.51313522e-01  1.08627081e+00  4.59927100e+00 -6.51313522e-01  1.08627081e+00
  4.59927100e+00 -6.51313522e-01  1.08627081e+00  4.59927100e+00 -6.51313522e-01
  1.08627081e+00  4.59927100e+00 -6.51313522e-01  1.08627081e+00  4.59927100e+00
 -6.51313522e-01  1.08627081e+00  4.59927100e+00 -3.03234519e+00  2.72305117e+00
  4.14081231e+00 -3.03234519e+00  2.72305117e+00  4.14081231e+00 -3.03234519e+00
  2.72305117e+00  4.14081231e+00 -3.03234519e+00  2.72305117e+00  4.14081231e+00
 -3.03234519e+00  2.72305117e+00  4.14081231e+00 -3.03234519e+00  2.72305117e+00
  4.14081231e+00 -3.03234519e+00  2.72305117e+00  4.14081231e+00 -3.03234519e+00
  2.72305117e+00  4.14081231e+00 -5.49504640e+00  8.59568088e-02  2.10730327e+00
 -5.49504640e+00  8.59568088e-02  2.10730327e+00 -5.25100371e+00  3.04906517e+00
  5.84277652e-01 -5.25100371e+00  3.04906517e+00  5.84277652e-01  8.05803916e-01
  2.10671427e+00  5.65859564e+00  8.05803916e-01  2.10671427e+00  5.65859564e+00
 -1.15639987e+00 -5.86658349e-01  5.73425191e+00 -1.15639987e+00 -5.86658349e-01
  5.73425191e+00 -4.65057059e+00  2.86284965e+00  6.37203909e+00 -4.65057059e+00
  2.86284965e+00  6.37203909e+00 -4.65057059e+00  2.86284965e+00  6.37203909e+00
 -4.65057059e+00  2.86284965e+00  6.37203909e+00 -4.65057059e+00  2.86284965e+00
  6.37203909e+00 -4.65057059e+00  2.86284965e+00  6.37203909e+00 -4.65057059e+00
  2.86284965e+00  6.37203909e+00 -4.65057059e+00  2.86284965e+00  6.37203909e+00
 -2.39904919e+00  4.65901155e+00  3.74418446e+00 -2.39904919e+00  4.65901155e+00
  3.74418446e+00 -5.39524727e+00  1.13575664e+00  6.79130997e+00 -5.39524727e+00
  1.13575664e+00  6.79130997e+00 -6.12730993e+00  4.06294587e+00  6.08488425e+00
 -6.12730993e+00  4.06294587e+00  6.08488425e+00
Total Energy                               R     -5.928826710544655e+02
Alpha Orbital Energies                     R   N=         269
 -1.92002273e+01 -1.92001901e+01 -1.43271768e+01 -1.03096823e+01 -1.02535068e+01
 -1.02529422e+01 -1.02233754e+01 -1.02011315e+01 -1.02007228e+01 -1.01981904e+01
 -1.01974929e+01 -1.01921244e+01 -1.01909885e+01 -1.13091318e+00 -1.03882064e+00
 -9.01033112e-01 -8.69036678e-01 -8.07000419e-01 -7.66436369e-01 -7.30155078e-01
 -7.01256947e-01 -6.63574354e-01 -6.25149575e-01 -6.02022077e-01 -5.83673006e-01
 -5.28975115e-01 -5.27132381e-01 -5.10451989e-01 -4.98495462e-01 -4.89887295e-01
 -4.59812119e-01 -4.53260535e-01 -4.53230251e-01 -4.11173501e-01 -4.00752849e-01
 -3.97840491e-01 -3.93133281e-01 -3.90994037e-01 -3.72491214e-01 -3.62213582e-01
 -3.60490605e-01 -3.48857265e-01 -3.43019942e-01 -3.01454732e-01 -2.50577484e-01
 -2.43550417e-01 -2.08485679e-01 -1.89650619e-02  5.17330479e-04  4.36521930e-03
  1.11626061e-02  2.05353391e-02  2.19327243e-02  2.74832536e-02  3.65848169e-02
  4.13782946e-02  4.33196161e-02  4.90335840e-02  5.41153709e-02  6.06106365e-02
  6.98977971e-02  8.18481779e-02  9.23842855e-02  9.56469394e-02  1.03719826e-01
  1.06526351e-01  1.07910935e-01  1.19106545e-01  1.27194950e-01  1.32106430e-01
  1.32670418e-01  1.37334459e-01  1.41246806e-01  1.44152977e-01  1.48905380e-01
  1.58158529e-01  1.60461476e-01  1.61152581e-01  1.71840736e-01  1.78801824e-01
  1.81802460e-01  1.87043201e-01  1.90003998e-01  1.99556898e-01  2.00751751e-01
  2.05891549e-01  2.08230088e-01  2.10770375e-01  2.13561467e-01  2.14766050e-01
  2.20526462e-01  2.31531351e-01  2.33151096e-01  2.36370358e-01  2.44756457e-01
  2.50043615e-01  2.55802719e-01  2.67453389e-01  2.72315097e-01  2.79403746e-01
  2.83710333e-01  2.92582432e-01  2.97878532e-01  3.00593575e-01  3.05359212e-01
  3.08205298e-01  3.14607169e-01  3.17027742e-01  3.19259030e-01  3.21384474e-01
  3.30055902e-01  3.37074663e-01  3.39038404e-01  3.49087805e-01  3.54677462e-01
  3.71167824e-01  3.74556479e-01  3.79939806e-01  3.88204273e-01  3.95412815e-01
  4.07102127e-01  4.13495731e-01  4.42171439e-01  4.45929263e-01  4.53845227e-01
  4.79106133e-01  5.77257116e-01  6.32075096e-01  6.35302563e-01  6.47035747e-01
  6.72794939e-01  6.82788793e-01  6.90168483e-01  7.06803999e-01  7.17602595e-01
  7.21203434e-01  7.30052360e-01  7.42676746e-01  7.50344519e-01  7.55626357e-01
  7.70799792e-01  7.79306059e-01  7.86418629e-01  7.99872253e-01  8.15925227e-01
  8.18589641e-01  8.41266205e-01  8.47128857e-01  8.81694074e-01  8.90378345e-01
  8.97737842e-01  9.17749832e-01  9.36317983e-01  9.48507584e-01  9.60592521e-01
  9.74931602e-01  9.85880493e-01  9.97846626e-01  1.02392036e+00  1.04647611e+00
  1.04676720e+00  1.07038722e+00  1.08261425e+00  1.10706022e+00  1.11796037e+00
  1.13035947e+00  1.13619199e+00  1.15253336e+00  1.16154781e+00  1.18572743e+00
  1.19548040e+00  1.20126844e+00  1.20457758e+00  1.23723210e+00  1.23736068e+00
  1.25169485e+00  1.25826412e+00  1.26737993e+00  1.29312788e+00  1.30904781e+00
  1.33106342e+00  1.36480136e+00  1.37586045e+00  1.38332862e+00  1.40005484e+00
  1.41015385e+00  1.44413955e+00  1.45864456e+00  1.46643874e+00  1.48409973e+00
  1.52453040e+00  1.58006322e+00  1.61108673e+00  1.63082409e+00  1.67032294e+00
  1.69994928e+00  1.76053018e+00  1.77773037e+00  1.79072516e+00  1.79850472e+00
  1.80813299e+00  1.83576119e+00  1.85046107e+00  1.86927123e+00  1.89153631e+00
  1.89884334e+00  1.91911053e+00  1.92767038e+00  1.94454867e+00  1.95752360e+00
  1.99382288e+00  1.99433995e+00  2.01337169e+00  2.02324896e+00  2.02700423e+00
  2.03706317e+00  2.06406052e+00  2.08935472e+00  2.11914874e+00  2.13814763e+00
  2.16161095e+00  2.16857513e+00  2.20472052e+00  2.24245281e+00  2.24964458e+00
  2.27137076e+00  2.31616313e+00  2.32445648e+00  2.33186640e+00  2.35179685e+00
  2.36424227e+00  2.40783078e+00  2.41910472e+00  2.46889192e+00  2.48176640e+00
  2.48777358e+00  2.55137323e+00  2.57765663e+00  2.58849838e+00  2.60225887e+00
  2.65603837e+00  2.67262013e+00  2.72814926e+00  2.74623772e+00  2.76114187e+00
  2.77876710e+00  2.82142363e+00  2.86702602e+00  2.89909339e+00  2.91195690e+00
  2.93039524e+00  3.04414831e+00  3.08799884e+00  3.10570047e+00  3.24972566e+00
  3.47590507e+00  3.98467700e+00  4.21930717e+00  4.27321723e+00  4.31678538e+00
  4.32589789e+00  4.37364051e+00  4.39083820e+00  4.46019960e+00  4.49924416e+00
  4.52945014e+00  4.66883777e+00  4.68427333e+00  5.01349230e+00
Alpha MO coefficients                      R   N=       72361
 -9.60784758e-07 -7.39238001e-06 -2.70931559e-05  1.05741938e-05  3.01781200e-06
  2.46652540e-05  6.79267888e-04 -1.66553653e-04  1.99441900e-04  5.87522861e-06
 -1.67834696e-06 -4.68495554e-06 -3.30271756e-06  2.34512625e-06 -2.25321754e-06
  2.90991759e-03  8.09176347e-03 -2.13519071e-03  2.38625642e-03  3.65023979e-06
  2.07220808e-05  1.24481317e-06  4.65016845e-06  1.09068800e-05 -4.60184901e-04
  3.47141725e-04 -9.67071494e-05  1.58881441e-04  9.41091587e-06  6.14890507e-06
 -1.15761499e-05 -4.17677726e-06 -8.76366652e-06  1.06444332e-07 -7.06979780e-03
  4.61063348e-03 -3.79650537e-04  4.85759530e-03 -5.42944575e-06 -4.55696920e-06
 -9.48012575e-06  9.82014025e-06  2.95623810e-05  2.80890174e-04  1.66578637e-04
 -8.20551070e-05 -1.82036228e-04 -1.13381321e-05 -1.19355488e-05 -4.98696986e-05
  4.59956520e-06  1.43173136e-05 -1.66711976e-05  2.55759850e-02  4.81941867e-03
 -3.85605428e-03 -9.88046890e-03 -1.49145295e-05 -1.96006046e-04 -2.29750119e-05
 -7.91435561e-07 -3.71832419e-05  1.45609869e-03 -2.15224667e-04 -1.19919424e-04
 -8.34906638e-04  2.96965606e-05 -3.14833852e-06  1.57504406e-04 -1.01654625e-05
  2.27893109e-05  3.06071710e-05  2.84958881e-03 -7.09590053e-03 -1.67760318e-03
 -2.08297721e-02  6.04267621e-05  2.74348880e-05 -1.19503364e-04  9.74092408e-05
  3.80772844e-04 -1.93493642e-04 -1.68625426e-03  5.77730763e-04 -3.62152433e-04
  4.61587989e-05  1.01564369e-04 -2.25119760e-04  5.28432193e-05  1.19566368e-04
 -1.16415594e-04 -4.40014034e-02 -4.55568385e-03  7.07080684e-05 -3.55564721e-03
  1.84907301e-05  6.02947976e-05  3.20080538e-06  4.94926143e-06  1.25710550e-05
 -1.45551134e-03 -9.94957409e-04  3.90941399e-04  5.04970905e-04  1.80880282e-05
  2.34804370e-05  3.95502916e-05 -2.30244997e-06  7.71811226e-06 -5.62924226e-07
  1.50170345e-02  9.42099860e-04  3.09672241e-04  1.59863805e-03 -5.52472310e-06
 -6.70676529e-05  5.11812842e-05 -3.82559652e-04 -9.92088309e-01 -2.53593077e-02