Generated by Psi4
     FORCE                           RHF                       TESTBAS
Number of atoms                            I               40
Charge                                     I                0
Multiplicity                               I                1
Number of electrons                        I              150
Number of alpha electrons                  I               75
Number of beta electrons                   I               75
Number of basis functions                  I              407
Number of independent functions            I              407
Atomic numbers                             I   N=          40
           6           6           6           6           6           6
           1           1           1          16           1           6
           8           6           6           1           1           1
           7           6           6           6           1           1
           6           1           1           1           6           1
           1           8           1           1           1           1
           6           1           1           1
Nuclear charges                            R   N=          40
  6.00000000e+00  6.00000000e+00  6.00000000e+00  6.00000000e+00  6.00000000e+00
  6.00000000e+00  1.00000000e+00  1.00000000e+00  1.00000000e+00  1.60000000e+01
  1.00000000e+00  6.00000000e+00  8.00000000e+00  6.00000000e+00  6.00000000e+00
  1.00000000e+00  1.00000000e+00  1.00000000e+00  7.00000000e+00  6.00000000e+00
  6.00000000e+00  6.00000000e+00  1.00000000e+00  1.00000000e+00  6.00000000e+00
  1.00000000e+00  1.00000000e+00  1.00000000e+00  6.00000000e+00  1.00000000e+00
  1.00000000e+00  8.00000000e+00  1.00000000e+00  1.00000000e+00  1.00000000e+00
  1.00000000e+00  6.00000000e+00  1.00000000e+00  1.00000000e+00  1.00000000e+00
Current cartesian coordinates              R   N=         120
  9.58621652e-01  1.34068439e+00  1.25291424e+00  2.96737418e+00  1.78598443e+00
  2.93516686e+00 -3.16362037e-01 -9.89255388e-01  1.43396463e+00  3.85876811e-01
 -2.77881241e+00  3.22507020e+00  2.38711531e+00 -2.30581645e+00  4.91047506e+00
  3.67568376e+00  9.32523583e-03  4.74034358e+00 -1.82431176e+00 -1.41130967e+00
  1.16503707e-01 -6.20382474e-01 -4.56827946e+00  3.31543562e+00  3.96923486e+00
  3.57142784e+00  2.80854488e+00  3.09891721e+00 -4.72709266e+00  7.12068872e+00
  5.22874110e+00  4.45294567e-01  6.00486893e+00  3.41279796e-01  3.40875400e+00
 -5.88305084e-01  1.77177604e+00  5.22242989e+00 -7.65405985e-01 -2.16110012e+00
  3.42595121e+00 -2.16111532e+00 -4.35254477e+00  3.65453002e+00 -2.33711014e-01
 -4.65248216e+00  1.90401268e+00  8.21486802e-01 -6.11889736e+00  4.17117837e+00
 -1.18017833e+00 -3.92974638e+00  5.15884338e+00  1.12424079e+00 -2.35659910e+00
  1.01956542e+00 -3.60540868e+00 -2.18309725e+00  5.79866229e+00 -3.85980243e+00
 -2.71326528e-01  5.89867606e-01 -5.38895522e+00 -4.09085851e-01 -2.09896599e+00
 -6.42910478e+00  1.53931918e+00  8.45107326e-01 -4.41643724e+00 -3.24457602e-01
  1.92642706e+00 -6.99197499e+00 -4.77216059e+00  5.59927581e-01 -4.88817669e+00
 -2.16438899e+00  7.51727621e+00 -2.71275595e+00 -3.89714032e+00  5.81640691e+00
 -5.02074148e+00 -5.35728805e-01  5.88297235e+00 -5.10202980e+00 -4.81169496e+00
 -2.12577285e+00 -5.95470773e+00 -5.10567960e+00  1.90372827e+00 -6.45342094e+00
 -6.33080981e+00  7.49621814e-01 -3.54284413e+00 -2.76692328e+00 -2.55870296e+00
 -7.64454769e+00 -1.33044384e-01 -3.47342269e+00 -4.88874425e+00  1.04993722e+00
 -2.39905821e+00 -7.86246752e+00 -6.54144806e+00 -2.44526770e+00 -7.04169046e+00
 -4.73507441e+00 -3.50409777e+00 -4.39305729e+00  5.74833647e+00 -3.45632742e+00
  8.91833277e+00  6.22858632e+00 -4.91763748e+00  1.02976692e+01  5.22760437e+00
 -1.73151298e+00  9.93095834e+00  7.39267581e+00 -3.11122422e+00  7.71481189e+00
Integer atomic weights                     I   N=          40
          12          12          12          12          12          12
           1           1           1          31           1          12
          15          12          12           1           1           1
          14          12          12          12           1           1
          12           1           1           1          12           1
           1          15           1           1           1           1
          12           1           1           1
Real atomic weights                        R   N=          40
  1.20000000e+01  1.20000000e+01  1.20000000e+01  1.20000000e+01  1.20000000e+01
  1.20000000e+01  1.00782503e+00  1.00782503e+00  1.00782503e+00  3.19720712e+01
  1.00782503e+00  1.20000000e+01  1.59949146e+01  1.20000000e+01  1.20000000e+01
  1.00782503e+00  1.00782503e+00  1.00782503e+00  1.40030740e+01  1.20000000e+01
  1.20000000e+01  1.20000000e+01  1.00782503e+00  1.00782503e+00  1.20000000e+01
  1.00782503e+00  1.00782503e+00  1.00782503e+00  1.20000000e+01  1.00782503e+00
  1.00782503e+00  1.59949146e+01  1.00782503e+00  1.00782503e+00  1.00782503e+00
  1.00782503e+00  1.20000000e+01  1.00782503e+00  1.00782503e+00  1.00782503e+00
Number of primitive shells                 I              419
Number of contracted shells                I              196
Pure/Cartesian d shells                    I                1
Pure/Cartesian f shells                    I                1
Highest angular momentum                   I                2
Largest degree of contraction              I                6
Shell types                                I   N=         196
           0           0           1           0           1           2
           0           1           0           0           1           0
           1           2           0           1           0           0
           1           0           1           2           0           1
           0           0           1           0           1           2
           0           1           0           0           1           0
           1           2           0           1           0           0
           1           0           1           2           0           1
           0           0           0           0           0           0
           0           0           1           0           1           0
           1           2           0           1           0           0
           0           0           1           0           1           2
           0           1           0           0           1           0
           1           2           0           1           0           0
           1           0           1           2           0           1
           0           0           1           0           1           2
           0           1           0           0           0           0
           0           0           0           0           1           0
           1           2           0           1           0           0
           1           0           1           2           0           1
           0           0           1           0           1           2
           0           1           0           0           1           0
           1           2           0           1           0           0
           0           0           0           0           1           0
           1           2           0           1           0           0
           0           0           0           0           0           0
           1           0           1           2           0           1
           0           0           0           0           0           0
           1           0           1           2           0           1
           0           0           0           0           0           0
           0           0           0           0           1           0
           1           2           0           1           0           0
           0           0           0           0
Number of primitives per shell             I   N=         196
           6           3           3           1           1           1
           1           1           6           3           3           1
           1           1           1           1           6           3
           3           1           1           1           1           1
           6           3           3           1           1           1
           1           1           6           3           3           1
           1           1           1           1           6           3
           3           1           1           1           1           1
           3           1           3           1           3           1
           6           6           6           3           3           1
           1           1           1           1           3           1
           6           3           3           1           1           1
           1           1           6           3           3           1
           1           1           1           1           6           3
           3           1           1           1           1           1
           6           3           3           1           1           1
           1           1           3           1           3           1
           3           1           6           3           3           1
           1           1           1           1           6           3
           3           1           1           1           1           1
           6           3           3           1           1           1
           1           1           6           3           3           1
           1           1           1           1           3           1
           3           1           6           3           3           1
           1           1           1           1           3           1
           3           1           3           1           6           3
           3           1           1           1           1           1
           3           1           3           1           6           3
           3           1           1           1           1           1
           3           1           3           1           3           1
           3           1           6           3           3           1
           1           1           1           1           3           1
           3           1           3           1
Shell to atom map                          I   N=         196
           1           1           1           1           1           1
           1           1           2           2           2           2
           2           2           2           2           3           3
           3           3           3           3           3           3
           4           4           4           4           4           4
           4           4           5           5           5           5
           5           5           5           5           6           6
           6           6           6           6           6           6
           7           7           8           8           9           9
          10          10          10          10          10          10
          10          10          10          10          11          11
          12          12          12          12          12          12
          12          12          13          13          13          13
          13          13          13          13          14          14
          14          14          14          14          14          14
          15          15          15          15          15          15
          15          15          16          16          17          17
          18          18          19          19          19          19
          19          19          19          19          20          20
          20          20          20          20          20          20
          21          21          21          21          21          21
          21          21          22          22          22          22
          22          22          22          22          23          23
          24          24          25          25          25          25
          25          25          25          25          26          26
          27          27          28          28          29          29
          29          29          29          29          29          29
          30          30          31          31          32          32
          32          32          32          32          32          32
          33          33          34          34          35          35
          36          36          37          37          37          37
          37          37          37          37          38          38
          39          39          40          40
Primitive exponents                        R   N=         419
  3.04752490e+03  4.57369510e+02  1.03948690e+02  2.92101550e+01  9.28666300e+00
  3.16392700e+00  7.86827240e+00  1.88128850e+00  5.44249300e-01  7.86827240e+00
  1.88128850e+00  5.44249300e-01  1.68714400e-01  1.68714400e-01  8.00000000e-01
  4.38000000e-02  4.38000000e-02  3.04752490e+03  4.57369510e+02  1.03948690e+02
  2.92101550e+01  9.28666300e+00  3.16392700e+00  7.86827240e+00  1.88128850e+00
  5.44249300e-01  7.86827240e+00  1.88128850e+00  5.44249300e-01  1.68714400e-01
  1.68714400e-01  8.00000000e-01  4.38000000e-02  4.38000000e-02  3.04752490e+03
  4.57369510e+02  1.03948690e+02  2.92101550e+01  9.28666300e+00  3.16392700e+00
  7.86827240e+00  1.88128850e+00  5.44249300e-01  7.86827240e+00  1.88128850e+00
  5.44249300e-01  1.68714400e-01  1.68714400e-01  8.00000000e-01  4.38000000e-02
  4.38000000e-02  3.04752490e+03  4.57369510e+02  1.03948690e+02  2.92101550e+01
  9.28666300e+00  3.16392700e+00  7.86827240e+00  1.88128850e+00  5.44249300e-01
  7.86827240e+00  1.88128850e+00  5.44249300e-01  1.68714400e-01  1.68714400e-01
  8.00000000e-01  4.38000000e-02  4.38000000e-02  3.04752490e+03  4.57369510e+02
  1.03948690e+02  2.92101550e+01  9.28666300e+00  3.16392700e+00  7.86827240e+00
  1.88128850e+00  5.44249300e-01  7.86827240e+00  1.88128850e+00  5.44249300e-01
  1.68714400e-01  1.68714400e-01  8.00000000e-01  4.38000000e-02  4.38000000e-02
  3.04752490e+03  4.57369510e+02  1.03948690e+02  2.92101550e+01  9.28666300e+00
  3.16392700e+00  7.86827240e+00  1.88128850e+00  5.44249300e-01  7.86827240e+00
  1.88128850e+00  5.44249300e-01  1.68714400e-01  1.68714400e-01  8.00000000e-01
  4.38000000e-02  4.38000000e-02  1.87311370e+01  2.82539370e+00  6.40121700e-01
  1.61277800e-01  1.87311370e+01  2.82539370e+00  6.40121700e-01  1.61277800e-01
  1.87311370e+01  2.82539370e+00  6.40121700e-01  1.61277800e-01  2.19171000e+04
  3.30149000e+03  7.54146000e+02  2.12711000e+02  6.79896000e+01  2.30515000e+01
  4.23735000e+02  1.00710000e+02  3.21599000e+01  1.18079000e+01  4.63110000e+00
  1.87025000e+00  4.23735000e+02  1.00710000e+02  3.21599000e+01  1.18079000e+01
  4.63110000e+00  1.87025000e+00  2.61584000e+00  9.22167000e-01  3.41287000e-01
  2.61584000e+00  9.22167000e-01  3.41287000e-01  1.17167000e-01  1.17167000e-01
  6.50000000e-01  4.05000000e-02  4.05000000e-02  1.87311370e+01  2.82539370e+00
  6.40121700e-01  1.61277800e-01  3.04752490e+03  4.57369510e+02  1.03948690e+02
  2.92101550e+01  9.28666300e+00  3.16392700e+00  7.86827240e+00  1.88128850e+00
  5.44249300e-01  7.86827240e+00  1.88128850e+00  5.44249300e-01  1.68714400e-01
  1.68714400e-01  8.00000000e-01  4.38000000e-02  4.38000000e-02  5.48467170e+03
  8.25234950e+02  1.88046960e+02  5.29645000e+01  1.68975700e+01  5.79963530e+00
  1.55396160e+01  3.59993360e+00  1.01376180e+00  1.55396160e+01  3.59993360e+00
  1.01376180e+00  2.70005800e-01  2.70005800e-01  8.00000000e-01  8.45000000e-02
  8.45000000e-02  3.04752490e+03  4.57369510e+02  1.03948690e+02  2.92101550e+01
  9.28666300e+00  3.16392700e+00  7.86827240e+00  1.88128850e+00  5.44249300e-01
  7.86827240e+00  1.88128850e+00  5.44249300e-01  1.68714400e-01  1.68714400e-01
  8.00000000e-01  4.38000000e-02  4.38000000e-02  3.04752490e+03  4.57369510e+02
  1.03948690e+02  2.92101550e+01  9.28666300e+00  3.16392700e+00  7.86827240e+00
  1.88128850e+00  5.44249300e-01  7.86827240e+00  1.88128850e+00  5.44249300e-01
  1.68714400e-01  1.68714400e-01  8.00000000e-01  4.38000000e-02  4.38000000e-02
  1.87311370e+01  2.82539370e+00  6.40121700e-01  1.61277800e-01  1.87311370e+01
  2.82539370e+00  6.40121700e-01  1.61277800e-01  1.87311370e+01  2.82539370e+00
  6.40121700e-01  1.61277800e-01  4.17351100e+03  6.27457900e+02  1.42902100e+02
  4.02343300e+01  1.28202100e+01  4.39043700e+00  1.16263580e+01  2.71628000e+00
  7.72218000e-01  1.16263580e+01  2.71628000e+00  7.72218000e-01  2.12031300e-01
  2.12031300e-01  8.00000000e-01  6.39000000e-02  6.39000000e-02  3.04752490e+03
  4.57369510e+02  1.03948690e+02  2.92101550e+01  9.28666300e+00  3.16392700e+00
  7.86827240e+00  1.88128850e+00  5.44249300e-01  7.86827240e+00  1.88128850e+00
  5.44249300e-01  1.68714400e-01  1.68714400e-01  8.00000000e-01  4.38000000e-02
  4.38000000e-02  3.04752490e+03  4.57369510e+02  1.03948690e+02  2.92101550e+01
  9.28666300e+00  3.16392700e+00  7.86827240e+00  1.88128850e+00  5.44249300e-01
  7.86827240e+00  1.88128850e+00  5.44249300e-01  1.68714400e-01  1.68714400e-01
  8.00000000e-01  4.38000000e-02  4.38000000e-02  3.04752490e+03  4.57369510e+02
  1.03948690e+02  2.92101550e+01  9.28666300e+00  3.16392700e+00  7.86827240e+00
  1.88128850e+00  5.44249300e-01  7.86827240e+00  1.88128850e+00  5.44249300e-01
  1.68714400e-01  1.68714400e-01  8.00000000e-01  4.38000000e-02  4.38000000e-02
  1.87311370e+01  2.82539370e+00  6.40121700e-01  1.61277800e-01  1.87311370e+01
  2.82539370e+00  6.40121700e-01  1.61277800e-01  3.04752490e+03  4.57369510e+02
  1.03948690e+02  2.92101550e+01  9.28666300e+00  3.16392700e+00  7.86827240e+00
  1.88128850e+00  5.44249300e-01  7.86827240e+00  1.88128850e+00  5.44249300e-01
  1.68714400e-01  1.68714400e-01  8.00000000e-01  4.38000000e-02  4.38000000e-02
  1.87311370e+01  2.82539370e+00  6.40121700e-01  1.61277800e-01  1.87311370e+01
  2.82539370e+00  6.40121700e-01  1.61277800e-01  1.87311370e+01  2.82539370e+00
  6.40121700e-01  1.61277800e-01  3.04752490e+03  4.57369510e+02  1.03948690e+02
  2.92101550e+01  9.28666300e+00  3.16392700e+00  7.86827240e+00  1.88128850e+00
  5.44249300e-01  7.86827240e+00  1.88128850e+00  5.44249300e-01  1.68714400e-01
  1.68714400e-01  8.00000000e-01  4.38000000e-02  4.38000000e-02  1.87311370e+01
  2.82539370e+00  6.40121700e-01  1.61277800e-01  1.87311370e+01  2.82539370e+00
  6.40121700e-01  1.61277800e-01  5.48467170e+03  8.25234950e+02  1.88046960e+02
  5.29645000e+01  1.68975700e+01  5.79963530e+00  1.55396160e+01  3.59993360e+00
  1.01376180e+00  1.55396160e+01  3.59993360e+00  1.01376180e+00  2.70005800e-01
  2.70005800e-01  8.00000000e-01  8.45000000e-02  8.45000000e-02  1.87311370e+01
  2.82539370e+00  6.40121700e-01  1.61277800e-01  1.87311370e+01  2.82539370e+00
  6.40121700e-01  1.61277800e-01  1.87311370e+01  2.82539370e+00  6.40121700e-01
  1.61277800e-01  1.87311370e+01  2.82539370e+00  6.40121700e-01  1.61277800e-01
  3.04752490e+03  4.57369510e+02  1.03948690e+02  2.92101550e+01  9.28666300e+00
  3.16392700e+00  7.86827240e+00  1.88128850e+00  5.44249300e-01  7.86827240e+00
  1.88128850e+00  5.44249300e-01  1.68714400e-01  1.68714400e-01  8.00000000e-01
  4.38000000e-02  4.38000000e-02  1.87311370e+01  2.82539370e+00  6.40121700e-01
  1.61277800e-01  1.87311370e+01  2.82539370e+00  6.40121700e-01  1.61277800e-01
  1.87311370e+01  2.82539370e+00  6.40121700e-01  1.61277800e-01
Contraction coefficients                   R   N=         419
  1.83470016e-03  1.40373012e-02  6.88426061e-02  2.32184421e-01  4.67941342e-01
  3.62312032e-01 -1.19332409e-01 -1.60854212e-01  1.14345648e+00  6.89990956e-02
  3.16423980e-01  7.44308252e-01  1.00000000e+00  1.00000000e+00  1.00000000e+00
  1.00000000e+00  1.00000000e+00  1.83470016e-03  1.40373012e-02  6.88426061e-02
  2.32184421e-01  4.67941342e-01  3.62312032e-01 -1.19332409e-01 -1.60854212e-01
  1.14345648e+00  6.89990956e-02  3.16423980e-01  7.44308252e-01  1.00000000e+00
  1.00000000e+00  1.00000000e+00  1.00000000e+00  1.00000000e+00  1.83470016e-03
  1.40373012e-02  6.88426061e-02  2.32184421e-01  4.67941342e-01  3.62312032e-01
 -1.19332409e-01 -1.60854212e-01  1.14345648e+00  6.89990956e-02  3.16423980e-01
  7.44308252e-01  1.00000000e+00  1.00000000e+00  1.00000000e+00  1.00000000e+00
  1.00000000e+00  1.83470016e-03  1.40373012e-02  6.88426061e-02  2.32184421e-01
  4.67941342e-01  3.62312032e-01 -1.19332409e-01 -1.60854212e-01  1.14345648e+00
  6.89990956e-02  3.16423980e-01  7.44308252e-01  1.00000000e+00  1.00000000e+00
  1.00000000e+00  1.00000000e+00  1.00000000e+00  1.83470016e-03  1.40373012e-02
  6.88426061e-02  2.32184421e-01  4.67941342e-01  3.62312032e-01 -1.19332409e-01
 -1.60854212e-01  1.14345648e+00  6.89990956e-02  3.16423980e-01  7.44308252e-01
  1.00000000e+00  1.00000000e+00  1.00000000e+00  1.00000000e+00  1.00000000e+00
  1.83470016e-03  1.40373012e-02  6.88426061e-02  2.32184421e-01  4.67941342e-01
  3.62312032e-01 -1.19332409e-01 -1.60854212e-01  1.14345648e+00  6.89990956e-02
  3.16423980e-01  7.44308252e-01  1.00000000e+00  1.00000000e+00  1.00000000e+00
  1.00000000e+00  1.00000000e+00  3.34945995e-02  2.34726947e-01  8.13757318e-01
  1.00000000e+00  3.34945995e-02  2.34726947e-01  8.13757318e-01  1.00000000e+00
  3.34945995e-02  2.34726947e-01  8.13757318e-01  1.00000000e+00  1.86900121e-03
  1.42300092e-02  6.96960451e-02  2.38487154e-01  4.83307312e-01  3.38074219e-01
 -2.37670050e-03 -3.16930066e-02 -1.13317024e-01  5.60900117e-02  5.92255123e-01
  4.55006095e-01  4.06100032e-03  3.06810024e-02  1.30452010e-01  3.27205026e-01
  4.52851036e-01  2.56042020e-01 -2.50373114e-01  6.69567631e-02  1.05450627e+00
 -1.45109929e-02  3.10262847e-01  7.54482628e-01  1.00000000e+00  1.00000000e+00
  1.00000000e+00  1.00000000e+00  1.00000000e+00  3.34945995e-02  2.34726947e-01
  8.13757318e-01  1.00000000e+00  1.83470016e-03  1.40373012e-02  6.88426061e-02
  2.32184421e-01  4.67941342e-01  3.62312032e-01 -1.19332409e-01 -1.60854212e-01
  1.14345648e+00  6.89990956e-02  3.16423980e-01  7.44308252e-01  1.00000000e+00
  1.00000000e+00  1.00000000e+00  1.00000000e+00  1.00000000e+00  1.83109981e-03
  1.39500985e-02  6.84450927e-02  2.32714275e-01  4.70192950e-01  3.58520862e-01
 -1.10777504e-01 -1.48026305e-01  1.13076704e+00  7.08742995e-02  3.39752798e-01
  7.27158595e-01  1.00000000e+00  1.00000000e+00  1.00000000e+00  1.00000000e+00
  1.00000000e+00  1.83470016e-03  1.40373012e-02  6.88426061e-02  2.32184421e-01
  4.67941342e-01  3.62312032e-01 -1.19332409e-01 -1.60854212e-01  1.14345648e+00
  6.89990956e-02  3.16423980e-01  7.44308252e-01  1.00000000e+00  1.00000000e+00
  1.00000000e+00  1.00000000e+00  1.00000000e+00  1.83470016e-03  1.40373012e-02
  6.88426061e-02  2.32184421e-01  4.67941342e-01  3.62312032e-01 -1.19332409e-01
 -1.60854212e-01  1.14345648e+00  6.89990956e-02  3.16423980e-01  7.44308252e-01
  1.00000000e+00  1.00000000e+00  1.00000000e+00  1.00000000e+00  1.00000000e+00
  3.34945995e-02  2.34726947e-01  8.13757318e-01  1.00000000e+00  3.34945995e-02
  2.34726947e-01  8.13757318e-01  1.00000000e+00  3.34945995e-02  2.34726947e-01
  8.13757318e-01  1.00000000e+00  1.83479944e-03  1.39949958e-02  6.85869792e-02
  2.32240930e-01  4.69069858e-01  3.60454891e-01 -1.14961023e-01 -1.69118034e-01
  1.14585223e+00  6.75800232e-02  3.23907111e-01  7.40895255e-01  1.00000000e+00
  1.00000000e+00  1.00000000e+00  1.00000000e+00  1.00000000e+00  1.83470016e-03
  1.40373012e-02  6.88426061e-02  2.32184421e-01  4.67941342e-01  3.62312032e-01
 -1.19332409e-01 -1.60854212e-01  1.14345648e+00  6.89990956e-02  3.16423980e-01
  7.44308252e-01  1.00000000e+00  1.00000000e+00  1.00000000e+00  1.00000000e+00
  1.00000000e+00  1.83470016e-03  1.40373012e-02  6.88426061e-02  2.32184421e-01
  4.67941342e-01  3.62312032e-01 -1.19332409e-01 -1.60854212e-01  1.14345648e+00
  6.89990956e-02  3.16423980e-01  7.44308252e-01  1.00000000e+00  1.00000000e+00
  1.00000000e+00  1.00000000e+00  1.00000000e+00  1.83470016e-03  1.40373012e-02
  6.88426061e-02  2.32184421e-01  4.67941342e-01  3.62312032e-01 -1.19332409e-01
 -1.60854212e-01  1.14345648e+00  6.89990956e-02  3.16423980e-01  7.44308252e-01
  1.00000000e+00  1.00000000e+00  1.00000000e+00  1.00000000e+00  1.00000000e+00
  3.34945995e-02  2.34726947e-01  8.13757318e-01  1.00000000e+00  3.34945995e-02
  2.34726947e-01  8.13757318e-01  1.00000000e+00  1.83470016e-03  1.40373012e-02
  6.88426061e-02  2.32184421e-01  4.67941342e-01  3.62312032e-01 -1.19332409e-01
 -1.60854212e-01  1.14345648e+00  6.89990956e-02  3.16423980e-01  7.44308252e-01
  1.00000000e+00  1.00000000e+00  1.00000000e+00  1.00000000e+00  1.00000000e+00
  3.34945995e-02  2.34726947e-01  8.13757318e-01  1.00000000e+00  3.34945995e-02
  2.34726947e-01  8.13757318e-01  1.00000000e+00  3.34945995e-02  2.34726947e-01
  8.13757318e-01  1.00000000e+00  1.83470016e-03  1.40373012e-02  6.88426061e-02
  2.32184421e-01  4.67941342e-01  3.62312032e-01 -1.19332409e-01 -1.60854212e-01
  1.14345648e+00  6.89990956e-02  3.16423980e-01  7.44308252e-01  1.00000000e+00
  1.00000000e+00  1.00000000e+00  1.00000000e+00  1.00000000e+00  3.34945995e-02
  2.34726947e-01  8.13757318e-01  1.00000000e+00  3.34945995e-02  2.34726947e-01
  8.13757318e-01  1.00000000e+00  1.83109981e-03  1.39500985e-02  6.84450927e-02
  2.32714275e-01  4.70192950e-01  3.58520862e-01 -1.10777504e-01 -1.48026305e-01
  1.13076704e+00  7.08742995e-02  3.39752798e-01  7.27158595e-01  1.00000000e+00
  1.00000000e+00  1.00000000e+00  1.00000000e+00  1.00000000e+00  3.34945995e-02
  2.34726947e-01  8.13757318e-01  1.00000000e+00  3.34945995e-02  2.34726947e-01
  8.13757318e-01  1.00000000e+00  3.34945995e-02  2.34726947e-01  8.13757318e-01
  1.00000000e+00  3.34945995e-02  2.34726947e-01  8.13757318e-01  1.00000000e+00
  1.83470016e-03  1.40373012e-02  6.88426061e-02  2.32184421e-01  4.67941342e-01
  3.62312032e-01 -1.19332409e-01 -1.60854212e-01  1.14345648e+00  6.89990956e-02
  3.16423980e-01  7.44308252e-01  1.00000000e+00  1.00000000e+00  1.00000000e+00
  1.00000000e+00  1.00000000e+00  3.34945995e-02  2.34726947e-01  8.13757318e-01
  1.00000000e+00  3.34945995e-02  2.34726947e-01  8.13757318e-01  1.00000000e+00
  3.34945995e-02  2.34726947e-01  8.13757318e-01  1.00000000e+00
Coordinates of each shell                  R   N=         588
  9.58621652e-01  1.34068439e+00  1.25291424e+00  9.58621652e-01  1.34068439e+00
  1.25291424e+00  9.58621652e-01  1.34068439e+00  1.25291424e+00  9.58621652e-01
  1.34068439e+00  1.25291424e+00  9.58621652e-01  1.34068439e+00  1.25291424e+00
  9.58621652e-01  1.34068439e+00  1.25291424e+00  9.58621652e-01  1.34068439e+00
  1.25291424e+00  9.58621652e-01  1.34068439e+00  1.25291424e+00  2.96737418e+00
  1.78598443e+00  2.93516686e+00  2.96737418e+00  1.78598443e+00  2.93516686e+00
  2.96737418e+00  1.78598443e+00  2.93516686e+00  2.96737418e+00  1.78598443e+00
  2.93516686e+00  2.96737418e+00  1.78598443e+00  2.93516686e+00  2.96737418e+00
  1.78598443e+00  2.93516686e+00  2.96737418e+00  1.78598443e+00  2.93516686e+00
  2.96737418e+00  1.78598443e+00  2.93516686e+00 -3.16362037e-01 -9.89255388e-01
  1.43396463e+00 -3.16362037e-01 -9.89255388e-01  1.43396463e+00 -3.16362037e-01
 -9.89255388e-01  1.43396463e+00 -3.16362037e-01 -9.89255388e-01  1.43396463e+00
 -3.16362037e-01 -9.89255388e-01  1.43396463e+00 -3.16362037e-01 -9.89255388e-01
  1.43396463e+00 -3.16362037e-01 -9.89255388e-01  1.43396463e+00 -3.16362037e-01
 -9.89255388e-01  1.43396463e+00  3.85876811e-01 -2.77881241e+00  3.22507020e+00
  3.85876811e-01 -2.77881241e+00  3.22507020e+00  3.85876811e-01 -2.77881241e+00
  3.22507020e+00  3.85876811e-01 -2.77881241e+00  3.22507020e+00  3.85876811e-01
 -2.77881241e+00  3.22507020e+00  3.85876811e-01 -2.77881241e+00  3.22507020e+00
  3.85876811e-01 -2.77881241e+00  3.22507020e+00  3.85876811e-01 -2.77881241e+00
  3.22507020e+00  2.38711531e+00 -2.30581645e+00  4.91047506e+00  2.38711531e+00
 -2.30581645e+00  4.91047506e+00  2.38711531e+00 -2.30581645e+00  4.91047506e+00
  2.38711531e+00 -2.30581645e+00  4.91047506e+00  2.38711531e+00 -2.30581645e+00
  4.91047506e+00  2.38711531e+00 -2.30581645e+00  4.91047506e+00  2.38711531e+00
 -2.30581645e+00  4.91047506e+00  2.38711531e+00 -2.30581645e+00  4.91047506e+00
  3.67568376e+00  9.32523583e-03  4.74034358e+00  3.67568376e+00  9.32523583e-03
  4.74034358e+00  3.67568376e+00  9.32523583e-03  4.74034358e+00  3.67568376e+00
  9.32523583e-03  4.74034358e+00  3.67568376e+00  9.32523583e-03  4.74034358e+00
  3.67568376e+00  9.32523583e-03  4.74034358e+00  3.67568376e+00  9.32523583e-03
  4.74034358e+00  3.67568376e+00  9.32523583e-03  4.74034358e+00 -1.82431176e+00
 -1.41130967e+00  1.16503707e-01 -1.82431176e+00 -1.41130967e+00  1.16503707e-01
 -6.20382474e-01 -4.56827946e+00  3.31543562e+00 -6.20382474e-01 -4.56827946e+00
  3.31543562e+00  3.96923486e+00  3.57142784e+00  2.80854488e+00  3.96923486e+00
  3.57142784e+00  2.80854488e+00  3.09891721e+00 -4.72709266e+00  7.12068872e+00
  3.09891721e+00 -4.72709266e+00  7.12068872e+00  3.09891721e+00 -4.72709266e+00
  7.12068872e+00  3.09891721e+00 -4.72709266e+00  7.12068872e+00  3.09891721e+00
 -4.72709266e+00  7.12068872e+00  3.09891721e+00 -4.72709266e+00  7.12068872e+00
  3.09891721e+00 -4.72709266e+00  7.12068872e+00  3.09891721e+00 -4.72709266e+00
  7.12068872e+00  3.09891721e+00 -4.72709266e+00  7.12068872e+00  3.09891721e+00
 -4.72709266e+00  7.12068872e+00  5.22874110e+00  4.45294567e-01  6.00486893e+00
  5.22874110e+00  4.45294567e-01  6.00486893e+00  3.41279796e-01  3.40875400e+00
 -5.88305084e-01  3.41279796e-01  3.40875400e+00 -5.88305084e-01  3.41279796e-01
  3.40875400e+00 -5.88305084e-01  3.41279796e-01  3.40875400e+00 -5.88305084e-01