Generated by Psi4
     FORCE                           RHF                       TESTBAS
Number of atoms                            I               28
Charge                                     I                0
Multiplicity                               I                1
Number of electrons                        I               96
Number of alpha electrons                  I               48
Number of beta electrons                   I               48
Number of basis functions                  I              277
Number of independent functions            I              277
Atomic numbers                             I   N=          28
           6           6           6           7           6           6
           6           6           6           1           1           6
           1           6           1           8           1           1
           1           1           1           1           6           1
           1           1           1           1
Nuclear charges                            R   N=          28
  6.00000000e+00  6.00000000e+00  6.00000000e+00  7.00000000e+00  6.00000000e+00
  6.00000000e+00  6.00000000e+00  6.00000000e+00  6.00000000e+00  1.00000000e+00
  1.00000000e+00  6.00000000e+00  1.00000000e+00  6.00000000e+00  1.00000000e+00
  8.00000000e+00  1.00000000e+00  1.00000000e+00  1.00000000e+00  1.00000000e+00
  1.00000000e+00  1.00000000e+00  6.00000000e+00  1.00000000e+00  1.00000000e+00
  1.00000000e+00  1.00000000e+00  1.00000000e+00
Current cartesian coordinates              R   N=          84
  8.15024875e-01 -4.40322907e-01 -1.63544517e+00 -1.49408901e+00  1.20096106e+00
 -1.46355625e+00 -2.03260934e+00  2.93535566e+00  8.24889953e-01 -1.81260213e+00
  1.65355439e+00  3.27018490e+00  2.55407722e+00 -7.57513153e-01  3.49345132e-01
  4.68062324e+00 -2.28787721e+00  2.17451696e-02  5.09789278e+00 -3.51620707e+00
 -2.27746530e+00  3.37347782e+00 -3.21578445e+00 -4.26174232e+00  1.25148693e+00
 -1.69290889e+00 -3.94188657e+00  2.19652273e+00  1.48886383e-01  2.15030389e+00
  6.00862951e+00 -2.52548944e+00  1.57116289e+00 -2.79033664e-01  5.25248080e+00
  7.40167712e-01 -3.98281587e+00  3.59042192e+00  4.80735005e-01 -3.77342550e+00
 -2.52730051e-01  3.73308382e+00 -1.88437289e+00  2.98368734e+00  4.66331307e+00
 -2.97668849e+00  1.30023412e+00 -3.24135024e+00  3.68898676e+00 -4.16830135e+00
 -6.05423840e+00 -1.00109860e-01 -1.43736891e+00 -5.46326384e+00  6.75508334e+00
 -4.70563110e+00 -2.52475821e+00  1.69925263e+00  4.72401556e+00  1.03152295e+00
 -8.18885870e-01  6.60043789e+00  2.22140454e+00 -4.44527008e-01  6.22009698e+00
 -1.08111021e+00 -3.55481448e+00 -1.33676132e+00  6.39821258e+00 -3.52801407e+00
 -1.77172003e+00  2.34275209e+00 -5.69201295e+00  5.22048696e-01  3.43335438e+00
 -1.69490710e+00 -2.19693852e+00  6.69436940e+00 -5.00369995e+00 -2.78171406e+00
  6.71743631e+00 -3.81679637e+00  1.39480532e-01  7.83338129e+00
Integer atomic weights                     I   N=          28
          12          12          12          14          12          12
          12          12          12           1           1          12
           1          12           1          15           1           1
           1           1           1           1          12           1
           1           1           1           1
Real atomic weights                        R   N=          28
  1.20000000e+01  1.20000000e+01  1.20000000e+01  1.40030740e+01  1.20000000e+01
  1.20000000e+01  1.20000000e+01  1.20000000e+01  1.20000000e+01  1.00782503e+00
  1.00782503e+00  1.20000000e+01  1.00782503e+00  1.20000000e+01  1.00782503e+00
  1.59949146e+01  1.00782503e+00  1.00782503e+00  1.00782503e+00  1.00782503e+00
  1.00782503e+00  1.00782503e+00  1.20000000e+01  1.00782503e+00  1.00782503e+00
  1.00782503e+00  1.00782503e+00  1.00782503e+00
Number of primitive shells                 I              281
Number of contracted shells                I              134
Pure/Cartesian d shells                    I                1
Pure/Cartesian f shells                    I                1
Highest angular momentum                   I                2
Largest degree of contraction              I                6
Shell types                                I   N=         134
           0           0           1           0           1           2
           0           1           0           0           1           0
           1           2           0           1           0           0
           1           0           1           2           0           1
           0           0           1           0           1           2
           0           1           0           0           1           0
           1           2           0           1           0           0
           1           0           1           2           0           1
           0           0           1           0           1           2
           0           1           0           0           1           0
           1           2           0           1           0           0
           1           0           1           2           0           1
           0           0           0           0           0           0
           1           0           1           2           0           1
           0           0           0           0           1           0
           1           2           0           1           0           0
           0           0           1           0           1           2
           0           1           0           0           0           0
           0           0           0           0           0           0
           0           0           0           0           1           0
           1           2           0           1           0           0
           0           0           0           0           0           0
           0           0
Number of primitives per shell             I   N=         134
           6           3           3           1           1           1
           1           1           6           3           3           1
           1           1           1           1           6           3
           3           1           1           1           1           1
           6           3           3           1           1           1
           1           1           6           3           3           1
           1           1           1           1           6           3
           3           1           1           1           1           1
           6           3           3           1           1           1
           1           1           6           3           3           1
           1           1           1           1           6           3
           3           1           1           1           1           1
           3           1           3           1           6           3
           3           1           1           1           1           1
           3           1           6           3           3           1
           1           1           1           1           3           1
           6           3           3           1           1           1
           1           1           3           1           3           1
           3           1           3           1           3           1
           3           1           6           3           3           1
           1           1           1           1           3           1
           3           1           3           1           3           1
           3           1
Shell to atom map                          I   N=         134
           1           1           1           1           1           1
           1           1           2           2           2           2
           2           2           2           2           3           3
           3           3           3           3           3           3
           4           4           4           4           4           4
           4           4           5           5           5           5
           5           5           5           5           6           6
           6           6           6           6           6           6
           7           7           7           7           7           7
           7           7           8           8           8           8
           8           8           8           8           9           9
           9           9           9           9           9           9
          10          10          11          11          12          12
          12          12          12          12          12          12
          13          13          14          14          14          14
          14          14          14          14          15          15
          16          16          16          16          16          16
          16          16          17          17          18          18
          19          19          20          20          21          21
          22          22          23          23          23          23
          23          23          23          23          24          24
          25          25          26          26          27          27
          28          28
Primitive exponents                        R   N=         281
  3.04752490e+03  4.57369510e+02  1.03948690e+02  2.92101550e+01  9.28666300e+00
  3.16392700e+00  7.86827240e+00  1.88128850e+00  5.44249300e-01  7.86827240e+00
  1.88128850e+00  5.44249300e-01  1.68714400e-01  1.68714400e-01  8.00000000e-01
  4.38000000e-02  4.38000000e-02  3.04752490e+03  4.57369510e+02  1.03948690e+02
  2.92101550e+01  9.28666300e+00  3.16392700e+00  7.86827240e+00  1.88128850e+00
  5.44249300e-01  7.86827240e+00  1.88128850e+00  5.44249300e-01  1.68714400e-01
  1.68714400e-01  8.00000000e-01  4.38000000e-02  4.38000000e-02  3.04752490e+03
  4.57369510e+02  1.03948690e+02  2.92101550e+01  9.28666300e+00  3.16392700e+00
  7.86827240e+00  1.88128850e+00  5.44249300e-01  7.86827240e+00  1.88128850e+00
  5.44249300e-01  1.68714400e-01  1.68714400e-01  8.00000000e-01  4.38000000e-02
  4.38000000e-02  4.17351100e+03  6.27457900e+02  1.42902100e+02  4.02343300e+01
  1.28202100e+01  4.39043700e+00  1.16263580e+01  2.71628000e+00  7.72218000e-01
  1.16263580e+01  2.71628000e+00  7.72218000e-01  2.12031300e-01  2.12031300e-01
  8.00000000e-01  6.39000000e-02  6.39000000e-02  3.04752490e+03  4.57369510e+02
  1.03948690e+02  2.92101550e+01  9.28666300e+00  3.16392700e+00  7.86827240e+00
  1.88128850e+00  5.44249300e-01  7.86827240e+00  1.88128850e+00  5.44249300e-01
  1.68714400e-01  1.68714400e-01  8.00000000e-01  4.38000000e-02  4.38000000e-02
  3.04752490e+03  4.57369510e+02  1.03948690e+02  2.92101550e+01  9.28666300e+00
  3.16392700e+00  7.86827240e+00  1.88128850e+00  5.44249300e-01  7.86827240e+00
  1.88128850e+00  5.44249300e-01  1.68714400e-01  1.68714400e-01  8.00000000e-01
  4.38000000e-02  4.38000000e-02  3.04752490e+03  4.57369510e+02  1.03948690e+02
  2.92101550e+01  9.28666300e+00  3.16392700e+00  7.86827240e+00  1.88128850e+00
  5.44249300e-01  7.86827240e+00  1.88128850e+00  5.44249300e-01  1.68714400e-01
  1.68714400e-01  8.00000000e-01  4.38000000e-02  4.38000000e-02  3.04752490e+03
  4.57369510e+02  1.03948690e+02  2.92101550e+01  9.28666300e+00  3.16392700e+00
  7.86827240e+00  1.88128850e+00  5.44249300e-01  7.86827240e+00  1.88128850e+00
  5.44249300e-01  1.68714400e-01  1.68714400e-01  8.00000000e-01  4.38000000e-02
  4.38000000e-02  3.04752490e+03  4.57369510e+02  1.03948690e+02  2.92101550e+01
  9.28666300e+00  3.16392700e+00  7.86827240e+00  1.88128850e+00  5.44249300e-01
  7.86827240e+00  1.88128850e+00  5.44249300e-01  1.68714400e-01  1.68714400e-01
  8.00000000e-01  4.38000000e-02  4.38000000e-02  1.87311370e+01  2.82539370e+00
  6.40121700e-01  1.61277800e-01  1.87311370e+01  2.82539370e+00  6.40121700e-01
  1.61277800e-01  3.04752490e+03  4.57369510e+02  1.03948690e+02  2.92101550e+01
  9.28666300e+00  3.16392700e+00  7.86827240e+00  1.88128850e+00  5.44249300e-01
  7.86827240e+00  1.88128850e+00  5.44249300e-01  1.68714400e-01  1.68714400e-01
  8.00000000e-01  4.38000000e-02  4.38000000e-02  1.87311370e+01  2.82539370e+00
  6.40121700e-01  1.61277800e-01  3.04752490e+03  4.57369510e+02  1.03948690e+02
  2.92101550e+01  9.28666300e+00  3.16392700e+00  7.86827240e+00  1.88128850e+00
  5.44249300e-01  7.86827240e+00  1.88128850e+00  5.44249300e-01  1.68714400e-01
  1.68714400e-01  8.00000000e-01  4.38000000e-02  4.38000000e-02  1.87311370e+01
  2.82539370e+00  6.40121700e-01  1.61277800e-01  5.48467170e+03  8.25234950e+02
  1.88046960e+02  5.29645000e+01  1.68975700e+01  5.79963530e+00  1.55396160e+01
  3.59993360e+00  1.01376180e+00  1.55396160e+01  3.59993360e+00  1.01376180e+00
  2.70005800e-01  2.70005800e-01  8.00000000e-01  8.45000000e-02  8.45000000e-02
  1.87311370e+01  2.82539370e+00  6.40121700e-01  1.61277800e-01  1.87311370e+01
  2.82539370e+00  6.40121700e-01  1.61277800e-01  1.87311370e+01  2.82539370e+00
  6.40121700e-01  1.61277800e-01  1.87311370e+01  2.82539370e+00  6.40121700e-01
  1.61277800e-01  1.87311370e+01  2.82539370e+00  6.40121700e-01  1.61277800e-01
  1.87311370e+01  2.82539370e+00  6.40121700e-01  1.61277800e-01  3.04752490e+03
  4.57369510e+02  1.03948690e+02  2.92101550e+01  9.28666300e+00  3.16392700e+00
  7.86827240e+00  1.88128850e+00  5.44249300e-01  7.86827240e+00  1.88128850e+00
  5.44249300e-01  1.68714400e-01  1.68714400e-01  8.00000000e-01  4.38000000e-02
  4.38000000e-02  1.87311370e+01  2.82539370e+00  6.40121700e-01  1.61277800e-01
  1.87311370e+01  2.82539370e+00  6.40121700e-01  1.61277800e-01  1.87311370e+01
  2.82539370e+00  6.40121700e-01  1.61277800e-01  1.87311370e+01  2.82539370e+00
  6.40121700e-01  1.61277800e-01  1.87311370e+01  2.82539370e+00  6.40121700e-01
  1.61277800e-01
Contraction coefficients                   R   N=         281
  1.83470016e-03  1.40373012e-02  6.88426061e-02  2.32184421e-01  4.67941342e-01
  3.62312032e-01 -1.19332409e-01 -1.60854212e-01  1.14345648e+00  6.89990956e-02
  3.16423980e-01  7.44308252e-01  1.00000000e+00  1.00000000e+00  1.00000000e+00
  1.00000000e+00  1.00000000e+00  1.83470016e-03  1.40373012e-02  6.88426061e-02
  2.32184421e-01  4.67941342e-01  3.62312032e-01 -1.19332409e-01 -1.60854212e-01
  1.14345648e+00  6.89990956e-02  3.16423980e-01  7.44308252e-01  1.00000000e+00
  1.00000000e+00  1.00000000e+00  1.00000000e+00  1.00000000e+00  1.83470016e-03
  1.40373012e-02  6.88426061e-02  2.32184421e-01  4.67941342e-01  3.62312032e-01
 -1.19332409e-01 -1.60854212e-01  1.14345648e+00  6.89990956e-02  3.16423980e-01
  7.44308252e-01  1.00000000e+00  1.00000000e+00  1.00000000e+00  1.00000000e+00
  1.00000000e+00  1.83479944e-03  1.39949958e-02  6.85869792e-02  2.32240930e-01
  4.69069858e-01  3.60454891e-01 -1.14961023e-01 -1.69118034e-01  1.14585223e+00
  6.75800232e-02  3.23907111e-01  7.40895255e-01  1.00000000e+00  1.00000000e+00
  1.00000000e+00  1.00000000e+00  1.00000000e+00  1.83470016e-03  1.40373012e-02
  6.88426061e-02  2.32184421e-01  4.67941342e-01  3.62312032e-01 -1.19332409e-01
 -1.60854212e-01  1.14345648e+00  6.89990956e-02  3.16423980e-01  7.44308252e-01
  1.00000000e+00  1.00000000e+00  1.00000000e+00  1.00000000e+00  1.00000000e+00
  1.83470016e-03  1.40373012e-02  6.88426061e-02  2.32184421e-01  4.67941342e-01
  3.62312032e-01 -1.19332409e-01 -1.60854212e-01  1.14345648e+00  6.89990956e-02
  3.16423980e-01  7.44308252e-01  1.00000000e+00  1.00000000e+00  1.00000000e+00
  1.00000000e+00  1.00000000e+00  1.83470016e-03  1.40373012e-02  6.88426061e-02
  2.32184421e-01  4.67941342e-01  3.62312032e-01 -1.19332409e-01 -1.60854212e-01
  1.14345648e+00  6.89990956e-02  3.16423980e-01  7.44308252e-01  1.00000000e+00
  1.00000000e+00  1.00000000e+00  1.00000000e+00  1.00000000e+00  1.83470016e-03
  1.40373012e-02  6.88426061e-02  2.32184421e-01  4.67941342e-01  3.62312032e-01
 -1.19332409e-01 -1.60854212e-01  1.14345648e+00  6.89990956e-02  3.16423980e-01
  7.44308252e-01  1.00000000e+00  1.00000000e+00  1.00000000e+00  1.00000000e+00
  1.00000000e+00  1.83470016e-03  1.40373012e-02  6.88426061e-02  2.32184421e-01
  4.67941342e-01  3.62312032e-01 -1.19332409e-01 -1.60854212e-01  1.14345648e+00
  6.89990956e-02  3.16423980e-01  7.44308252e-01  1.00000000e+00  1.00000000e+00
  1.00000000e+00  1.00000000e+00  1.00000000e+00  3.34945995e-02  2.34726947e-01
  8.13757318e-01  1.00000000e+00  3.34945995e-02  2.34726947e-01  8.13757318e-01
  1.00000000e+00  1.83470016e-03  1.40373012e-02  6.88426061e-02  2.32184421e-01
  4.67941342e-01  3.62312032e-01 -1.19332409e-01 -1.60854212e-01  1.14345648e+00
  6.89990956e-02  3.16423980e-01  7.44308252e-01  1.00000000e+00  1.00000000e+00
  1.00000000e+00  1.00000000e+00  1.00000000e+00  3.34945995e-02  2.34726947e-01
  8.13757318e-01  1.00000000e+00  1.83470016e-03  1.40373012e-02  6.88426061e-02
  2.32184421e-01  4.67941342e-01  3.62312032e-01 -1.19332409e-01 -1.60854212e-01
  1.14345648e+00  6.89990956e-02  3.16423980e-01  7.44308252e-01  1.00000000e+00
  1.00000000e+00  1.00000000e+00  1.00000000e+00  1.00000000e+00  3.34945995e-02
  2.34726947e-01  8.13757318e-01  1.00000000e+00  1.83109981e-03  1.39500985e-02
  6.84450927e-02  2.32714275e-01  4.70192950e-01  3.58520862e-01 -1.10777504e-01
 -1.48026305e-01  1.13076704e+00  7.08742995e-02  3.39752798e-01  7.27158595e-01
  1.00000000e+00  1.00000000e+00  1.00000000e+00  1.00000000e+00  1.00000000e+00
  3.34945995e-02  2.34726947e-01  8.13757318e-01  1.00000000e+00  3.34945995e-02
  2.34726947e-01  8.13757318e-01  1.00000000e+00  3.34945995e-02  2.34726947e-01
  8.13757318e-01  1.00000000e+00  3.34945995e-02  2.34726947e-01  8.13757318e-01
  1.00000000e+00  3.34945995e-02  2.34726947e-01  8.13757318e-01  1.00000000e+00
  3.34945995e-02  2.34726947e-01  8.13757318e-01  1.00000000e+00  1.83470016e-03
  1.40373012e-02  6.88426061e-02  2.32184421e-01  4.67941342e-01  3.62312032e-01
 -1.19332409e-01 -1.60854212e-01  1.14345648e+00  6.89990956e-02  3.16423980e-01
  7.44308252e-01  1.00000000e+00  1.00000000e+00  1.00000000e+00  1.00000000e+00
  1.00000000e+00  3.34945995e-02  2.34726947e-01  8.13757318e-01  1.00000000e+00
  3.34945995e-02  2.34726947e-01  8.13757318e-01  1.00000000e+00  3.34945995e-02
  2.34726947e-01  8.13757318e-01  1.00000000e+00  3.34945995e-02  2.34726947e-01
  8.13757318e-01  1.00000000e+00  3.34945995e-02  2.34726947e-01  8.13757318e-01
  1.00000000e+00
Coordinates of each shell                  R   N=         402
  8.15024875e-01 -4.40322907e-01 -1.63544517e+00  8.15024875e-01 -4.40322907e-01
 -1.63544517e+00  8.15024875e-01 -4.40322907e-01 -1.63544517e+00  8.15024875e-01
 -4.40322907e-01 -1.63544517e+00  8.15024875e-01 -4.40322907e-01 -1.63544517e+00
  8.15024875e-01 -4.40322907e-01 -1.63544517e+00  8.15024875e-01 -4.40322907e-01
 -1.63544517e+00  8.15024875e-01 -4.40322907e-01 -1.63544517e+00 -1.49408901e+00
  1.20096106e+00 -1.46355625e+00 -1.49408901e+00  1.20096106e+00 -1.46355625e+00
 -1.49408901e+00  1.20096106e+00 -1.46355625e+00 -1.49408901e+00  1.20096106e+00
 -1.46355625e+00 -1.49408901e+00  1.20096106e+00 -1.46355625e+00 -1.49408901e+00
  1.20096106e+00 -1.46355625e+00 -1.49408901e+00  1.20096106e+00 -1.46355625e+00
 -1.49408901e+00  1.20096106e+00 -1.46355625e+00 -2.03260934e+00  2.93535566e+00
  8.24889953e-01 -2.03260934e+00  2.93535566e+00  8.24889953e-01 -2.03260934e+00
  2.93535566e+00  8.24889953e-01 -2.03260934e+00  2.93535566e+00  8.24889953e-01
 -2.03260934e+00  2.93535566e+00  8.24889953e-01 -2.03260934e+00  2.93535566e+00
  8.24889953e-01 -2.03260934e+00  2.93535566e+00  8.24889953e-01 -2.03260934e+00
  2.93535566e+00  8.24889953e-01 -1.81260213e+00  1.65355439e+00  3.27018490e+00
 -1.81260213e+00  1.65355439e+00  3.27018490e+00 -1.81260213e+00  1.65355439e+00
  3.27018490e+00 -1.81260213e+00  1.65355439e+00  3.27018490e+00 -1.81260213e+00
  1.65355439e+00  3.27018490e+00 -1.81260213e+00  1.65355439e+00  3.27018490e+00
 -1.81260213e+00  1.65355439e+00  3.27018490e+00 -1.81260213e+00  1.65355439e+00
  3.27018490e+00  2.55407722e+00 -7.57513153e-01  3.49345132e-01  2.55407722e+00
 -7.57513153e-01  3.49345132e-01  2.55407722e+00 -7.57513153e-01  3.49345132e-01
  2.55407722e+00 -7.57513153e-01  3.49345132e-01  2.55407722e+00 -7.57513153e-01
  3.49345132e-01  2.55407722e+00 -7.57513153e-01  3.49345132e-01  2.55407722e+00
 -7.57513153e-01  3.49345132e-01  2.55407722e+00 -7.57513153e-01  3.49345132e-01
  4.68062324e+00 -2.28787721e+00  2.17451696e-02  4.68062324e+00 -2.28787721e+00
  2.17451696e-02  4.68062324e+00 -2.28787721e+00  2.17451696e-02  4.68062324e+00
 -2.28787721e+00  2.17451696e-02  4.68062324e+00 -2.28787721e+00  2.17451696e-02
  4.68062324e+00 -2.28787721e+00  2.17451696e-02  4.68062324e+00 -2.28787721e+00
  2.17451696e-02  4.68062324e+00 -2.28787721e+00  2.17451696e-02  5.09789278e+00
 -3.51620707e+00 -2.27746530e+00  5.09789278e+00 -3.51620707e+00 -2.27746530e+00
  5.09789278e+00 -3.51620707e+00 -2.27746530e+00  5.09789278e+00 -3.51620707e+00
 -2.27746530e+00  5.09789278e+00 -3.51620707e+00 -2.27746530e+00  5.09789278e+00
 -3.51620707e+00 -2.27746530e+00  5.09789278e+00 -3.51620707e+00 -2.27746530e+00
  5.09789278e+00 -3.51620707e+00 -2.27746530e+00  3.37347782e+00 -3.21578445e+00
 -4.26174232e+00  3.37347782e+00 -3.21578445e+00 -4.26174232e+00  3.37347782e+00
 -3.21578445e+00 -4.26174232e+00  3.37347782e+00 -3.21578445e+00 -4.26174232e+00
  3.37347782e+00 -3.21578445e+00 -4.26174232e+00  3.37347782e+00 -3.21578445e+00
 -4.26174232e+00  3.37347782e+00 -3.21578445e+00 -4.26174232e+00  3.37347782e+00
 -3.21578445e+00 -4.26174232e+00  1.25148693e+00 -1.69290889e+00 -3.94188657e+00
  1.25148693e+00 -1.69290889e+00 -3.94188657e+00  1.25148693e+00 -1.69290889e+00
 -3.94188657e+00  1.25148693e+00 -1.69290889e+00 -3.94188657e+00  1.25148693e+00
 -1.69290889e+00 -3.94188657e+00  1.25148693e+00 -1.69290889e+00 -3.94188657e+00
  1.25148693e+00 -1.69290889e+00 -3.94188657e+00  1.25148693e+00 -1.69290889e+00
 -3.94188657e+00  2.19652273e+00  1.48886383e-01  2.15030389e+00  2.19652273e+00
  1.48886383e-01  2.15030389e+00  6.00862951e+00 -2.52548944e+00  1.57116289e+00
  6.00862951e+00 -2.52548944e+00  1.57116289e+00 -2.79033664e-01  5.25248080e+00
  7.40167712e-01 -2.79033664e-01  5.25248080e+00  7.40167712e-01 -2.79033664e-01
  5.25248080e+00  7.40167712e-01 -2.79033664e-01  5.25248080e+00  7.40167712e-01
 -2.79033664e-01  5.25248080e+00  7.40167712e-01 -2.79033664e-01  5.25248080e+00
  7.40167712e-01 -2.79033664e-01  5.25248080e+00  7.40167712e-01 -2.79033664e-01
  5.25248080e+00  7.40167712e-01 -3.98281587e+00  3.59042192e+00  4.80735005e-01
 -3.98281587e+00  3.59042192e+00  4.80735005e-01 -3.77342550e+00 -2.52730051e-01
  3.73308382e+00 -3.77342550e+00 -2.52730051e-01  3.73308382e+00 -3.77342550e+00
 -2.52730051e-01  3.73308382e+00 -3.77342550e+00 -2.52730051e-01  3.73308382e+00
 -3.77342550e+00 -2.52730051e-01  3.73308382e+00 -3.77342550e+00 -2.52730051e-01
  3.73308382e+00 -3.77342550e+00 -2.52730051e-01  3.73308382e+00 -3.77342550e+00
 -2.52730051e-01  3.73308382e+00 -1.88437289e+00  2.98368734e+00  4.66331307e+00
 -1.88437289e+00  2.98368734e+00  4.66331307e+00 -2.97668849e+00  1.30023412e+00
 -3.24135024e+00 -2.97668849e+00  1.30023412e+00 -3.24135024e+00 -2.97668849e+00
  1.30023412e+00 -3.24135024e+00 -2.97668849e+00  1.30023412e+00 -3.24135024e+00
 -2.97668849e+00  1.30023412e+00 -3.24135024e+00 -2.97668849e+00  1.30023412e+00
 -3.24135024e+00 -2.97668849e+00  1.30023412e+00 -3.24135024e+00 -2.97668849e+00
  1.30023412e+00 -3.24135024e+00  3.68898676e+00 -4.16830135e+00 -6.05423840e+00
  3.68898676e+00 -4.16830135e+00 -6.05423840e+00 -1.00109860e-01 -1.43736891e+00
 -5.46326384e+00 -1.00109860e-01 -1.43736891e+00 -5.46326384e+00  6.75508334e+00
 -4.70563110e+00 -2.52475821e+00  6.75508334e+00 -4.70563110e+00 -2.52475821e+00
  1.69925263e+00  4.72401556e+00  1.03152295e+00  1.69925263e+00  4.72401556e+00
  1.03152295e+00 -8.18885870e-01  6.60043789e+00  2.22140454e+00 -8.18885870e-01
  6.60043789e+00  2.22140454e+00 -4.44527008e-01  6.22009698e+00 -1.08111021e+00
 -4.44527008e-01  6.22009698e+00 -1.08111021e+00 -3.55481448e+00 -1.33676132e+00
  6.39821258e+00 -3.55481448e+00 -1.33676132e+00  6.39821258e+00 -3.55481448e+00
 -1.33676132e+00  6.39821258e+00 -3.55481448e+00 -1.33676132e+00  6.39821258e+00
 -3.55481448e+00 -1.33676132e+00  6.39821258e+00 -3.55481448e+00 -1.33676132e+00
  6.39821258e+00 -3.55481448e+00 -1.33676132e+00  6.39821258e+00 -3.55481448e+00
 -1.33676132e+00  6.39821258e+00 -3.52801407e+00 -1.77172003e+00  2.34275209e+00
 -3.52801407e+00 -1.77172003e+00  2.34275209e+00 -5.69201295e+00  5.22048696e-01
  3.43335438e+00 -5.69201295e+00  5.22048696e-01  3.43335438e+00 -1.69490710e+00
 -2.19693852e+00  6.69436940e+00 -1.69490710e+00 -2.19693852e+00  6.69436940e+00
 -5.00369995e+00 -2.78171406e+00  6.71743631e+00 -5.00369995e+00 -2.78171406e+00
  6.71743631e+00 -3.81679637e+00  1.39480532e-01  7.83338129e+00 -3.81679637e+00
  1.39480532e-01  7.83338129e+00
Total Energy                               R     -5.581951123528730e+02
Alpha Orbital Energies                     R   N=         277
 -1.91464005e+01 -1.43365514e+01 -1.02804828e+01 -1.02297760e+01 -1.02179453e+01
 -1.02081090e+01 -1.02074703e+01 -1.02028025e+01 -1.02027522e+01 -1.02014550e+01
 -1.02013804e+01 -1.01940903e+01 -1.01866188e+01 -1.04421836e+00 -9.20749086e-01
 -8.64823294e-01 -7.85733339e-01 -7.64142811e-01 -7.55207840e-01 -7.25699789e-01
 -6.62153913e-01 -6.24265308e-01 -6.19050263e-01 -6.10838336e-01 -5.56070617e-01
 -5.12726671e-01 -4.96808162e-01 -4.85709863e-01 -4.67687779e-01 -4.57712569e-01
 -4.48598184e-01 -4.42150048e-01 -4.34959594e-01 -4.26828855e-01 -4.11712136e-01
 -4.05559311e-01 -3.87266205e-01 -3.85401478e-01 -3.73367475e-01 -3.65875878e-01
 -3.64300202e-01 -3.56443059e-01 -3.50205340e-01 -3.43836425e-01 -2.64677262e-01
 -2.61955960e-01 -2.57790977e-01 -2.37591152e-01 -6.65878366e-02 -1.78765122e-02
 -1.41377176e-03  8.20642767e-03  1.57877494e-02  2.14149296e-02  2.50652749e-02
  3.03133809e-02  3.33546539e-02  4.13459032e-02  4.94871849e-02  5.06943340e-02
  5.80995841e-02  6.33084483e-02  6.63835029e-02  7.38654598e-02  7.70467028e-02
  8.44868921e-02  8.80040583e-02  9.54595730e-02  1.00555551e-01  1.04510709e-01
  1.11919992e-01  1.13274011e-01  1.17669142e-01  1.28569333e-01  1.35046517e-01
  1.37921483e-01  1.46235658e-01  1.51871290e-01  1.52574907e-01  1.58544113e-01
  1.61381993e-01  1.71974518e-01  1.74671224e-01  1.78126996e-01  1.83626430e-01
  1.89829137e-01  1.91714164e-01  1.96651750e-01  1.97052427e-01  2.01083888e-01
  2.08384986e-01  2.11379218e-01  2.17191868e-01  2.22576212e-01  2.26376660e-01
  2.29596857e-01  2.36022212e-01  2.38936594e-01  2.44625387e-01  2.45363210e-01
  2.52955540e-01  2.56128707e-01  2.59193981e-01  2.65521150e-01  2.70481177e-01
  2.72958294e-01  2.74585704e-01  2.88041381e-01  2.93106840e-01  2.95796594e-01
  3.00594446e-01  3.09861961e-01  3.14356504e-01  3.27378158e-01  3.33187421e-01
  3.38676642e-01  3.44765771e-01  3.46847093e-01  3.52383207e-01  3.61561851e-01
  3.74594990e-01  3.75492119e-01  3.88565126e-01  3.95636946e-01  4.17578000e-01
  4.34206716e-01  4.43858598e-01  4.66469828e-01  4.82113784e-01  5.11922332e-01
  5.88516745e-01  6.09390805e-01  6.46008252e-01  6.64238796e-01  6.69506826e-01
  6.79542155e-01  6.85682990e-01  6.91040463e-01  7.02310476e-01  7.08158639e-01
  7.17685579e-01  7.22485672e-01  7.26200635e-01  7.35116716e-01  7.43194921e-01
  7.50958677e-01  7.54637447e-01  7.71902827e-01  7.76836808e-01  7.98630696e-01
  8.17377237e-01  8.24938108e-01  8.33136719e-01  8.43945742e-01  8.62984691e-01
  8.63456086e-01  8.99688741e-01  9.02739406e-01  9.37832398e-01  9.40961570e-01
  9.48660580e-01  9.56566003e-01  9.62493320e-01  9.64858051e-01  9.90529760e-01
  9.97932643e-01  1.01907515e+00  1.02303906e+00  1.03849232e+00  1.04462434e+00
  1.05972850e+00  1.07938707e+00  1.08903283e+00  1.10387233e+00  1.11900314e+00
  1.12336959e+00  1.12960974e+00  1.14688022e+00  1.15400933e+00  1.16762391e+00
  1.18296601e+00  1.19583075e+00  1.20169050e+00  1.23905232e+00  1.26278742e+00
  1.28069371e+00  1.28246823e+00  1.30604599e+00  1.35029434e+00  1.35774660e+00
  1.36523191e+00  1.40100985e+00  1.42122703e+00  1.43141251e+00  1.44057375e+00
  1.45127707e+00  1.47026687e+00  1.47737578e+00  1.49123743e+00  1.49450672e+00
  1.50947821e+00  1.51830193e+00  1.55238620e+00  1.59467539e+00  1.66534564e+00
  1.68721346e+00  1.71621608e+00  1.73997534e+00  1.78789330e+00  1.80134412e+00
  1.82418596e+00  1.85100196e+00  1.85889706e+00  1.89399448e+00  1.91606386e+00
  1.93613148e+00  1.95183722e+00  1.96171396e+00  1.96675143e+00  1.99172081e+00
  1.99678688e+00  2.00942178e+00  2.02513132e+00  2.04460672e+00  2.06955801e+00
  2.08379204e+00  2.10235301e+00  2.12783173e+00  2.14504608e+00  2.15056759e+00
  2.16053459e+00  2.17234195e+00  2.18146943e+00  2.23101128e+00  2.26426109e+00
  2.27958925e+00  2.28600785e+00  2.30230168e+00  2.32298676e+00  2.32712736e+00
  2.38539082e+00  2.39804863e+00  2.41332579e+00  2.43680966e+00  2.47091835e+00
  2.53406747e+00  2.57199334e+00  2.58980701e+00  2.59707282e+00  2.63323683e+00
  2.64334962e+00  2.64831569e+00  2.67390011e+00  2.72951206e+00  2.75770181e+00
  2.77380979e+00  2.80312286e+00  2.84117553e+00  2.89229476e+00  2.91893738e+00
  3.01405076e+00  3.12495829e+00  3.24155865e+00  3.40741323e+00  4.14476827e+00
  4.23005431e+00  4.24642167e+00  4.25038405e+00  4.27967595e+00  4.30002320e+00
  4.34654183e+00  4.40526759e+00  4.44933996e+00  4.48441678e+00  4.57245799e+00
  4.67083131e+00  4.77438254e+00
Alpha MO coefficients                      R   N=       76729
 -5.66195575e-06 -1.12720759e-04 -1.00918634e-05 -2.18003198e-07 -2.27358891e-05
  5.14206340e-04  1.20133429e-04 -1.71802751e-05  1.48423182e-04  7.68917860e-05