Generated by Psi4
     FORCE                           RHF                       TESTBAS
Number of atoms                            I               37
Charge                                     I                0
Multiplicity                               I                1
Number of electrons                        I              134
Number of alpha electrons                  I               67
Number of beta electrons                   I               67
Number of basis functions                  I              380
Number of independent functions            I              380
Atomic numbers                             I   N=          37
           6           6           6           7           6           6
           6           6           6           1           1           1
           6           1           1           6           1           8
           6           1           1           1           6           1
           1           6           1           1           1           8
           8           6           1           1           1           1
           1
Nuclear charges                            R   N=          37
  6.00000000e+00  6.00000000e+00  6.00000000e+00  7.00000000e+00  6.00000000e+00
  6.00000000e+00  6.00000000e+00  6.00000000e+00  6.00000000e+00  1.00000000e+00
  1.00000000e+00  1.00000000e+00  6.00000000e+00  1.00000000e+00  1.00000000e+00
  6.00000000e+00  1.00000000e+00  8.00000000e+00  6.00000000e+00  1.00000000e+00
  1.00000000e+00  1.00000000e+00  6.00000000e+00  1.00000000e+00  1.00000000e+00
  6.00000000e+00  1.00000000e+00  1.00000000e+00  1.00000000e+00  8.00000000e+00
  8.00000000e+00  6.00000000e+00  1.00000000e+00  1.00000000e+00  1.00000000e+00
  1.00000000e+00  1.00000000e+00
Current cartesian coordinates              R   N=         111
 -7.86483349e-02 -4.77579335e-01 -1.26570700e+00 -2.60777437e+00  6.51327613e-01
 -6.65930802e-01 -3.14957053e+00  1.85590551e+00  1.92767394e+00 -2.71434793e+00
 -2.48075562e-02  3.91985999e+00  2.11531248e+00  5.06160553e-02  1.28943933e-01
  4.47483550e+00 -9.90065000e-01 -5.11499218e-01  4.53396875e+00 -2.57919238e+00
 -2.58267270e+00  2.36202051e+00 -3.11830827e+00 -3.98389005e+00  4.53734784e-02
 -2.10256762e+00 -3.39140567e+00  2.04102220e+00  1.34655201e+00  1.71454150e+00
 -1.64638300e+00 -2.50374059e+00 -4.47479473e+00  6.16928087e+00 -5.65153641e-01
  5.61804189e-01 -1.84456430e+00  4.49121365e+00  2.25259585e+00 -5.19562800e+00
  2.16616193e+00  1.88131796e+00 -3.98171381e-01  4.35025328e+00  3.73965196e+00
 -3.69473994e+00  6.63048650e+00  2.91218805e+00 -8.34685311e-01  5.01287094e+00
  5.14299279e-01 -4.29432653e+00  6.05838304e-01 -2.25129326e+00 -3.85970436e+00
  5.57214107e-01  6.37007374e+00 -8.38424520e-01 -3.89121874e-01  4.13859992e+00
 -4.72891018e+00  6.14110293e+00  4.64495462e+00 -5.11879454e+00  6.77151910e+00
  1.40751094e+00 -2.38644313e+00  9.19214336e+00  3.25290530e+00 -5.89550936e+00
  8.08400186e-01  6.05969407e+00 -3.15503926e+00  2.34499944e+00  7.19376914e+00
 -3.41871597e+00 -1.59592199e+00  8.24340518e+00 -9.91685914e-01  9.12673100e+00
  4.78739748e+00 -3.75390838e+00  1.06804271e+01  3.70984669e+00 -1.39097922e+00
  9.76083072e+00  1.52440594e+00  2.95902430e+00 -4.80381689e+00 -5.87656031e+00
  6.54760718e+00 -3.88444718e+00 -3.55462320e+00  5.65963336e+00 -4.94507234e+00
 -5.89569339e+00  6.40497809e+00 -3.82135387e+00 -7.47369193e+00  6.24673628e+00
 -6.91843685e+00 -6.01391347e+00 -4.18639593e+00 -3.37130758e+00  7.50674137e+00
 -4.32628477e+00 -1.18113806e+00  1.00590473e+01 -1.39425191e+00 -1.87336317e+00
  8.60517357e+00
Integer atomic weights                     I   N=          37
          12          12          12          14          12          12
          12          12          12           1           1           1
          12           1           1          12           1          15
          12           1           1           1          12           1
           1          12           1           1           1          15
          15          12           1           1           1           1
           1
Real atomic weights                        R   N=          37
  1.20000000e+01  1.20000000e+01  1.20000000e+01  1.40030740e+01  1.20000000e+01
  1.20000000e+01  1.20000000e+01  1.20000000e+01  1.20000000e+01  1.00782503e+00
  1.00782503e+00  1.00782503e+00  1.20000000e+01  1.00782503e+00  1.00782503e+00
  1.20000000e+01  1.00782503e+00  1.59949146e+01  1.20000000e+01  1.00782503e+00
  1.00782503e+00  1.00782503e+00  1.20000000e+01  1.00782503e+00  1.00782503e+00
  1.20000000e+01  1.00782503e+00  1.00782503e+00  1.00782503e+00  1.59949146e+01
  1.59949146e+01  1.20000000e+01  1.00782503e+00  1.00782503e+00  1.00782503e+00
  1.00782503e+00  1.00782503e+00
Number of primitive shells                 I              382
Number of contracted shells                I              182
Pure/Cartesian d shells                    I                1
Pure/Cartesian f shells                    I                1
Highest angular momentum                   I                2
Largest degree of contraction              I                6
Shell types                                I   N=         182
           0           0           1           0           1           2
           0           1           0           0           1           0
           1           2           0           1           0           0
           1           0           1           2           0           1
           0           0           1           0           1           2
           0           1           0           0           1           0
           1           2           0           1           0           0
           1           0           1           2           0           1
           0           0           1           0           1           2
           0           1           0           0           1           0
           1           2           0           1           0           0
           1           0           1           2           0           1
           0           0           0           0           0           0
           0           0           1           0           1           2
           0           1           0           0           0           0
           0           0           1           0           1           2
           0           1           0           0           0           0
           1           0           1           2           0           1
           0           0           1           0           1           2
           0           1           0           0           0           0
           0           0           0           0           1           0
           1           2           0           1           0           0
           0           0           0           0           1           0
           1           2           0           1           0           0
           0           0           0           0           0           0
           1           0           1           2           0           1
           0           0           1           0           1           2
           0           1           0           0           1           0
           1           2           0           1           0           0
           0           0           0           0           0           0
           0           0
Number of primitives per shell             I   N=         182
           6           3           3           1           1           1
           1           1           6           3           3           1
           1           1           1           1           6           3
           3           1           1           1           1           1
           6           3           3           1           1           1
           1           1           6           3           3           1
           1           1           1           1           6           3
           3           1           1           1           1           1
           6           3           3           1           1           1
           1           1           6           3           3           1
           1           1           1           1           6           3
           3           1           1           1           1           1
           3           1           3           1           3           1
           6           3           3           1           1           1
           1           1           3           1           3           1
           6           3           3           1           1           1
           1           1           3           1           6           3
           3           1           1           1           1           1
           6           3           3           1           1           1
           1           1           3           1           3           1
           3           1           6           3           3           1
           1           1           1           1           3           1
           3           1           6           3           3           1
           1           1           1           1           3           1
           3           1           3           1           6           3
           3           1           1           1           1           1
           6           3           3           1           1           1
           1           1           6           3           3           1
           1           1           1           1           3           1
           3           1           3           1           3           1
           3           1
Shell to atom map                          I   N=         182
           1           1           1           1           1           1
           1           1           2           2           2           2
           2           2           2           2           3           3
           3           3           3           3           3           3
           4           4           4           4           4           4
           4           4           5           5           5           5
           5           5           5           5           6           6
           6           6           6           6           6           6
           7           7           7           7           7           7
           7           7           8           8           8           8
           8           8           8           8           9           9
           9           9           9           9           9           9
          10          10          11          11          12          12
          13          13          13          13          13          13
          13          13          14          14          15          15
          16          16          16          16          16          16
          16          16          17          17          18          18
          18          18          18          18          18          18
          19          19          19          19          19          19
          19          19          20          20          21          21
          22          22          23          23          23          23
          23          23          23          23          24          24
          25          25          26          26          26          26
          26          26          26          26          27          27
          28          28          29          29          30          30
          30          30          30          30          30          30
          31          31          31          31          31          31
          31          31          32          32          32          32
          32          32          32          32          33          33
          34          34          35          35          36          36
          37          37
Primitive exponents                        R   N=         382
  3.04752490e+03  4.57369510e+02  1.03948690e+02  2.92101550e+01  9.28666300e+00
  3.16392700e+00  7.86827240e+00  1.88128850e+00  5.44249300e-01  7.86827240e+00
  1.88128850e+00  5.44249300e-01  1.68714400e-01  1.68714400e-01  8.00000000e-01
  4.38000000e-02  4.38000000e-02  3.04752490e+03  4.57369510e+02  1.03948690e+02
  2.92101550e+01  9.28666300e+00  3.16392700e+00  7.86827240e+00  1.88128850e+00
  5.44249300e-01  7.86827240e+00  1.88128850e+00  5.44249300e-01  1.68714400e-01
  1.68714400e-01  8.00000000e-01  4.38000000e-02  4.38000000e-02  3.04752490e+03
  4.57369510e+02  1.03948690e+02  2.92101550e+01  9.28666300e+00  3.16392700e+00
  7.86827240e+00  1.88128850e+00  5.44249300e-01  7.86827240e+00  1.88128850e+00
  5.44249300e-01  1.68714400e-01  1.68714400e-01  8.00000000e-01  4.38000000e-02
  4.38000000e-02  4.17351100e+03  6.27457900e+02  1.42902100e+02  4.02343300e+01
  1.28202100e+01  4.39043700e+00  1.16263580e+01  2.71628000e+00  7.72218000e-01
  1.16263580e+01  2.71628000e+00  7.72218000e-01  2.12031300e-01  2.12031300e-01
  8.00000000e-01  6.39000000e-02  6.39000000e-02  3.04752490e+03  4.57369510e+02
  1.03948690e+02  2.92101550e+01  9.28666300e+00  3.16392700e+00  7.86827240e+00
  1.88128850e+00  5.44249300e-01  7.86827240e+00  1.88128850e+00  5.44249300e-01
  1.68714400e-01  1.68714400e-01  8.00000000e-01  4.38000000e-02  4.38000000e-02
  3.04752490e+03  4.57369510e+02  1.03948690e+02  2.92101550e+01  9.28666300e+00
  3.16392700e+00  7.86827240e+00  1.88128850e+00  5.44249300e-01  7.86827240e+00
  1.88128850e+00  5.44249300e-01  1.68714400e-01  1.68714400e-01  8.00000000e-01
  4.38000000e-02  4.38000000e-02  3.04752490e+03  4.57369510e+02  1.03948690e+02
  2.92101550e+01  9.28666300e+00  3.16392700e+00  7.86827240e+00  1.88128850e+00
  5.44249300e-01  7.86827240e+00  1.88128850e+00  5.44249300e-01  1.68714400e-01
  1.68714400e-01  8.00000000e-01  4.38000000e-02  4.38000000e-02  3.04752490e+03
  4.57369510e+02  1.03948690e+02  2.92101550e+01  9.28666300e+00  3.16392700e+00
  7.86827240e+00  1.88128850e+00  5.44249300e-01  7.86827240e+00  1.88128850e+00
  5.44249300e-01  1.68714400e-01  1.68714400e-01  8.00000000e-01  4.38000000e-02
  4.38000000e-02  3.04752490e+03  4.57369510e+02  1.03948690e+02  2.92101550e+01
  9.28666300e+00  3.16392700e+00  7.86827240e+00  1.88128850e+00  5.44249300e-01
  7.86827240e+00  1.88128850e+00  5.44249300e-01  1.68714400e-01  1.68714400e-01
  8.00000000e-01  4.38000000e-02  4.38000000e-02  1.87311370e+01  2.82539370e+00
  6.40121700e-01  1.61277800e-01  1.87311370e+01  2.82539370e+00  6.40121700e-01
  1.61277800e-01  1.87311370e+01  2.82539370e+00  6.40121700e-01  1.61277800e-01
  3.04752490e+03  4.57369510e+02  1.03948690e+02  2.92101550e+01  9.28666300e+00
  3.16392700e+00  7.86827240e+00  1.88128850e+00  5.44249300e-01  7.86827240e+00
  1.88128850e+00  5.44249300e-01  1.68714400e-01  1.68714400e-01  8.00000000e-01
  4.38000000e-02  4.38000000e-02  1.87311370e+01  2.82539370e+00  6.40121700e-01
  1.61277800e-01  1.87311370e+01  2.82539370e+00  6.40121700e-01  1.61277800e-01
  3.04752490e+03  4.57369510e+02  1.03948690e+02  2.92101550e+01  9.28666300e+00
  3.16392700e+00  7.86827240e+00  1.88128850e+00  5.44249300e-01  7.86827240e+00
  1.88128850e+00  5.44249300e-01  1.68714400e-01  1.68714400e-01  8.00000000e-01
  4.38000000e-02  4.38000000e-02  1.87311370e+01  2.82539370e+00  6.40121700e-01
  1.61277800e-01  5.48467170e+03  8.25234950e+02  1.88046960e+02  5.29645000e+01
  1.68975700e+01  5.79963530e+00  1.55396160e+01  3.59993360e+00  1.01376180e+00
  1.55396160e+01  3.59993360e+00  1.01376180e+00  2.70005800e-01  2.70005800e-01
  8.00000000e-01  8.45000000e-02  8.45000000e-02  3.04752490e+03  4.57369510e+02
  1.03948690e+02  2.92101550e+01  9.28666300e+00  3.16392700e+00  7.86827240e+00
  1.88128850e+00  5.44249300e-01  7.86827240e+00  1.88128850e+00  5.44249300e-01
  1.68714400e-01  1.68714400e-01  8.00000000e-01  4.38000000e-02  4.38000000e-02
  1.87311370e+01  2.82539370e+00  6.40121700e-01  1.61277800e-01  1.87311370e+01
  2.82539370e+00  6.40121700e-01  1.61277800e-01  1.87311370e+01  2.82539370e+00
  6.40121700e-01  1.61277800e-01  3.04752490e+03  4.57369510e+02  1.03948690e+02
  2.92101550e+01  9.28666300e+00  3.16392700e+00  7.86827240e+00  1.88128850e+00
  5.44249300e-01  7.86827240e+00  1.88128850e+00  5.44249300e-01  1.68714400e-01
  1.68714400e-01  8.00000000e-01  4.38000000e-02  4.38000000e-02  1.87311370e+01
  2.82539370e+00  6.40121700e-01  1.61277800e-01  1.87311370e+01  2.82539370e+00
  6.40121700e-01  1.61277800e-01  3.04752490e+03  4.57369510e+02  1.03948690e+02
  2.92101550e+01  9.28666300e+00  3.16392700e+00  7.86827240e+00  1.88128850e+00
  5.44249300e-01  7.86827240e+00  1.88128850e+00  5.44249300e-01  1.68714400e-01
  1.68714400e-01  8.00000000e-01  4.38000000e-02  4.38000000e-02  1.87311370e+01
  2.82539370e+00  6.40121700e-01  1.61277800e-01  1.87311370e+01  2.82539370e+00
  6.40121700e-01  1.61277800e-01  1.87311370e+01  2.82539370e+00  6.40121700e-01
  1.61277800e-01  5.48467170e+03  8.25234950e+02  1.88046960e+02  5.29645000e+01
  1.68975700e+01  5.79963530e+00  1.55396160e+01  3.59993360e+00  1.01376180e+00
  1.55396160e+01  3.59993360e+00  1.01376180e+00  2.70005800e-01  2.70005800e-01
  8.00000000e-01  8.45000000e-02  8.45000000e-02  5.48467170e+03  8.25234950e+02
  1.88046960e+02  5.29645000e+01  1.68975700e+01  5.79963530e+00  1.55396160e+01
  3.59993360e+00  1.01376180e+00  1.55396160e+01  3.59993360e+00  1.01376180e+00
  2.70005800e-01  2.70005800e-01  8.00000000e-01  8.45000000e-02  8.45000000e-02
  3.04752490e+03  4.57369510e+02  1.03948690e+02  2.92101550e+01  9.28666300e+00
  3.16392700e+00  7.86827240e+00  1.88128850e+00  5.44249300e-01  7.86827240e+00
  1.88128850e+00  5.44249300e-01  1.68714400e-01  1.68714400e-01  8.00000000e-01
  4.38000000e-02  4.38000000e-02  1.87311370e+01  2.82539370e+00  6.40121700e-01
  1.61277800e-01  1.87311370e+01  2.82539370e+00  6.40121700e-01  1.61277800e-01
  1.87311370e+01  2.82539370e+00  6.40121700e-01  1.61277800e-01  1.87311370e+01
  2.82539370e+00  6.40121700e-01  1.61277800e-01  1.87311370e+01  2.82539370e+00
  6.40121700e-01  1.61277800e-01
Contraction coefficients                   R   N=         382
  1.83470016e-03  1.40373012e-02  6.88426061e-02  2.32184421e-01  4.67941342e-01
  3.62312032e-01 -1.19332409e-01 -1.60854212e-01  1.14345648e+00  6.89990956e-02
  3.16423980e-01  7.44308252e-01  1.00000000e+00  1.00000000e+00  1.00000000e+00
  1.00000000e+00  1.00000000e+00  1.83470016e-03  1.40373012e-02  6.88426061e-02
  2.32184421e-01  4.67941342e-01  3.62312032e-01 -1.19332409e-01 -1.60854212e-01
  1.14345648e+00  6.89990956e-02  3.16423980e-01  7.44308252e-01  1.00000000e+00
  1.00000000e+00  1.00000000e+00  1.00000000e+00  1.00000000e+00  1.83470016e-03
  1.40373012e-02  6.88426061e-02  2.32184421e-01  4.67941342e-01  3.62312032e-01
 -1.19332409e-01 -1.60854212e-01  1.14345648e+00  6.89990956e-02  3.16423980e-01
  7.44308252e-01  1.00000000e+00  1.00000000e+00  1.00000000e+00  1.00000000e+00
  1.00000000e+00  1.83479944e-03  1.39949958e-02  6.85869792e-02  2.32240930e-01
  4.69069858e-01  3.60454891e-01 -1.14961023e-01 -1.69118034e-01  1.14585223e+00
  6.75800232e-02  3.23907111e-01  7.40895255e-01  1.00000000e+00  1.00000000e+00
  1.00000000e+00  1.00000000e+00  1.00000000e+00  1.83470016e-03  1.40373012e-02
  6.88426061e-02  2.32184421e-01  4.67941342e-01  3.62312032e-01 -1.19332409e-01
 -1.60854212e-01  1.14345648e+00  6.89990956e-02  3.16423980e-01  7.44308252e-01
  1.00000000e+00  1.00000000e+00  1.00000000e+00  1.00000000e+00  1.00000000e+00
  1.83470016e-03  1.40373012e-02  6.88426061e-02  2.32184421e-01  4.67941342e-01
  3.62312032e-01 -1.19332409e-01 -1.60854212e-01  1.14345648e+00  6.89990956e-02
  3.16423980e-01  7.44308252e-01  1.00000000e+00  1.00000000e+00  1.00000000e+00
  1.00000000e+00  1.00000000e+00  1.83470016e-03  1.40373012e-02  6.88426061e-02
  2.32184421e-01  4.67941342e-01  3.62312032e-01 -1.19332409e-01 -1.60854212e-01
  1.14345648e+00  6.89990956e-02  3.16423980e-01  7.44308252e-01  1.00000000e+00
  1.00000000e+00  1.00000000e+00  1.00000000e+00  1.00000000e+00  1.83470016e-03
  1.40373012e-02  6.88426061e-02  2.32184421e-01  4.67941342e-01  3.62312032e-01
 -1.19332409e-01 -1.60854212e-01  1.14345648e+00  6.89990956e-02  3.16423980e-01
  7.44308252e-01  1.00000000e+00  1.00000000e+00  1.00000000e+00  1.00000000e+00
  1.00000000e+00  1.83470016e-03  1.40373012e-02  6.88426061e-02  2.32184421e-01
  4.67941342e-01  3.62312032e-01 -1.19332409e-01 -1.60854212e-01  1.14345648e+00
  6.89990956e-02  3.16423980e-01  7.44308252e-01  1.00000000e+00  1.00000000e+00
  1.00000000e+00  1.00000000e+00  1.00000000e+00  3.34945995e-02  2.34726947e-01
  8.13757318e-01  1.00000000e+00  3.34945995e-02  2.34726947e-01  8.13757318e-01
  1.00000000e+00  3.34945995e-02  2.34726947e-01  8.13757318e-01  1.00000000e+00
  1.83470016e-03  1.40373012e-02  6.88426061e-02  2.32184421e-01  4.67941342e-01
  3.62312032e-01 -1.19332409e-01 -1.60854212e-01  1.14345648e+00  6.89990956e-02
  3.16423980e-01  7.44308252e-01  1.00000000e+00  1.00000000e+00  1.00000000e+00
  1.00000000e+00  1.00000000e+00  3.34945995e-02  2.34726947e-01  8.13757318e-01
  1.00000000e+00  3.34945995e-02  2.34726947e-01  8.13757318e-01  1.00000000e+00
  1.83470016e-03  1.40373012e-02  6.88426061e-02  2.32184421e-01  4.67941342e-01
  3.62312032e-01 -1.19332409e-01 -1.60854212e-01  1.14345648e+00  6.89990956e-02
  3.16423980e-01  7.44308252e-01  1.00000000e+00  1.00000000e+00  1.00000000e+00
  1.00000000e+00  1.00000000e+00  3.34945995e-02  2.34726947e-01  8.13757318e-01
  1.00000000e+00  1.83109981e-03  1.39500985e-02  6.84450927e-02  2.32714275e-01
  4.70192950e-01  3.58520862e-01 -1.10777504e-01 -1.48026305e-01  1.13076704e+00
  7.08742995e-02  3.39752798e-01  7.27158595e-01  1.00000000e+00  1.00000000e+00
  1.00000000e+00  1.00000000e+00  1.00000000e+00  1.83470016e-03  1.40373012e-02
  6.88426061e-02  2.32184421e-01  4.67941342e-01  3.62312032e-01 -1.19332409e-01
 -1.60854212e-01  1.14345648e+00  6.89990956e-02  3.16423980e-01  7.44308252e-01
  1.00000000e+00  1.00000000e+00  1.00000000e+00  1.00000000e+00  1.00000000e+00
  3.34945995e-02  2.34726947e-01  8.13757318e-01  1.00000000e+00  3.34945995e-02
  2.34726947e-01  8.13757318e-01  1.00000000e+00  3.34945995e-02  2.34726947e-01
  8.13757318e-01  1.00000000e+00  1.83470016e-03  1.40373012e-02  6.88426061e-02
  2.32184421e-01  4.67941342e-01  3.62312032e-01 -1.19332409e-01 -1.60854212e-01
  1.14345648e+00  6.89990956e-02  3.16423980e-01  7.44308252e-01  1.00000000e+00
  1.00000000e+00  1.00000000e+00  1.00000000e+00  1.00000000e+00  3.34945995e-02
  2.34726947e-01  8.13757318e-01  1.00000000e+00  3.34945995e-02  2.34726947e-01
  8.13757318e-01  1.00000000e+00  1.83470016e-03  1.40373012e-02  6.88426061e-02
  2.32184421e-01  4.67941342e-01  3.62312032e-01 -1.19332409e-01 -1.60854212e-01
  1.14345648e+00  6.89990956e-02  3.16423980e-01  7.44308252e-01  1.00000000e+00
  1.00000000e+00  1.00000000e+00  1.00000000e+00  1.00000000e+00  3.34945995e-02
  2.34726947e-01  8.13757318e-01  1.00000000e+00  3.34945995e-02  2.34726947e-01
  8.13757318e-01  1.00000000e+00  3.34945995e-02  2.34726947e-01  8.13757318e-01
  1.00000000e+00  1.83109981e-03  1.39500985e-02  6.84450927e-02  2.32714275e-01
  4.70192950e-01  3.58520862e-01 -1.10777504e-01 -1.48026305e-01  1.13076704e+00
  7.08742995e-02  3.39752798e-01  7.27158595e-01  1.00000000e+00  1.00000000e+00
  1.00000000e+00  1.00000000e+00  1.00000000e+00  1.83109981e-03  1.39500985e-02
  6.84450927e-02  2.32714275e-01  4.70192950e-01  3.58520862e-01 -1.10777504e-01
 -1.48026305e-01  1.13076704e+00  7.08742995e-02  3.39752798e-01  7.27158595e-01
  1.00000000e+00  1.00000000e+00  1.00000000e+00  1.00000000e+00  1.00000000e+00
  1.83470016e-03  1.40373012e-02  6.88426061e-02  2.32184421e-01  4.67941342e-01
  3.62312032e-01 -1.19332409e-01 -1.60854212e-01  1.14345648e+00  6.89990956e-02
  3.16423980e-01  7.44308252e-01  1.00000000e+00  1.00000000e+00  1.00000000e+00
  1.00000000e+00  1.00000000e+00  3.34945995e-02  2.34726947e-01  8.13757318e-01
  1.00000000e+00  3.34945995e-02  2.34726947e-01  8.13757318e-01  1.00000000e+00
  3.34945995e-02  2.34726947e-01  8.13757318e-01  1.00000000e+00  3.34945995e-02
  2.34726947e-01  8.13757318e-01  1.00000000e+00  3.34945995e-02  2.34726947e-01
  8.13757318e-01  1.00000000e+00
Coordinates of each shell                  R   N=         546
 -7.86483349e-02 -4.77579335e-01 -1.26570700e+00 -7.86483349e-02 -4.77579335e-01
 -1.26570700e+00 -7.86483349e-02 -4.77579335e-01 -1.26570700e+00 -7.86483349e-02
 -4.77579335e-01 -1.26570700e+00 -7.86483349e-02 -4.77579335e-01 -1.26570700e+00
 -7.86483349e-02 -4.77579335e-01 -1.26570700e+00 -7.86483349e-02 -4.77579335e-01
 -1.26570700e+00 -7.86483349e-02 -4.77579335e-01 -1.26570700e+00 -2.60777437e+00
  6.51327613e-01 -6.65930802e-01 -2.60777437e+00  6.51327613e-01 -6.65930802e-01
 -2.60777437e+00  6.51327613e-01 -6.65930802e-01 -2.60777437e+00  6.51327613e-01
 -6.65930802e-01 -2.60777437e+00  6.51327613e-01 -6.65930802e-01 -2.60777437e+00
  6.51327613e-01 -6.65930802e-01 -2.60777437e+00  6.51327613e-01 -6.65930802e-01
 -2.60777437e+00  6.51327613e-01 -6.65930802e-01 -3.14957053e+00  1.85590551e+00
  1.92767394e+00 -3.14957053e+00  1.85590551e+00  1.92767394e+00 -3.14957053e+00
  1.85590551e+00  1.92767394e+00 -3.14957053e+00  1.85590551e+00  1.92767394e+00
 -3.14957053e+00  1.85590551e+00  1.92767394e+00 -3.14957053e+00  1.85590551e+00
  1.92767394e+00 -3.14957053e+00  1.85590551e+00  1.92767394e+00 -3.14957053e+00
  1.85590551e+00  1.92767394e+00 -2.71434793e+00 -2.48075562e-02  3.91985999e+00
 -2.71434793e+00 -2.48075562e-02  3.91985999e+00 -2.71434793e+00 -2.48075562e-02
  3.91985999e+00 -2.71434793e+00 -2.48075562e-02  3.91985999e+00 -2.71434793e+00
 -2.48075562e-02  3.91985999e+00 -2.71434793e+00 -2.48075562e-02  3.91985999e+00
 -2.71434793e+00 -2.48075562e-02  3.91985999e+00 -2.71434793e+00 -2.48075562e-02
  3.91985999e+00  2.11531248e+00  5.06160553e-02  1.28943933e-01  2.11531248e+00
  5.06160553e-02  1.28943933e-01  2.11531248e+00  5.06160553e-02  1.28943933e-01
  2.11531248e+00  5.06160553e-02  1.28943933e-01  2.11531248e+00  5.06160553e-02
  1.28943933e-01  2.11531248e+00  5.06160553e-02  1.28943933e-01  2.11531248e+00
  5.06160553e-02  1.28943933e-01  2.11531248e+00  5.06160553e-02  1.28943933e-01
  4.47483550e+00 -9.90065000e-01 -5.11499218e-01  4.47483550e+00 -9.90065000e-01
 -5.11499218e-01  4.47483550e+00 -9.90065000e-01 -5.11499218e-01  4.47483550e+00
 -9.90065000e-01 -5.11499218e-01  4.47483550e+00 -9.90065000e-01 -5.11499218e-01
  4.47483550e+00 -9.90065000e-01 -5.11499218e-01  4.47483550e+00 -9.90065000e-01
 -5.11499218e-01  4.47483550e+00 -9.90065000e-01 -5.11499218e-01  4.53396875e+00
 -2.57919238e+00 -2.58267270e+00  4.53396875e+00 -2.57919238e+00 -2.58267270e+00
  4.53396875e+00 -2.57919238e+00 -2.58267270e+00  4.53396875e+00 -2.57919238e+00
 -2.58267270e+00  4.53396875e+00 -2.57919238e+00 -2.58267270e+00  4.53396875e+00
 -2.57919238e+00 -2.58267270e+00  4.53396875e+00 -2.57919238e+00 -2.58267270e+00
  4.53396875e+00 -2.57919238e+00 -2.58267270e+00  2.36202051e+00 -3.11830827e+00
 -3.98389005e+00  2.36202051e+00 -3.11830827e+00 -3.98389005e+00  2.36202051e+00
 -3.11830827e+00 -3.98389005e+00  2.36202051e+00 -3.11830827e+00 -3.98389005e+00
  2.36202051e+00 -3.11830827e+00 -3.98389005e+00  2.36202051e+00 -3.11830827e+00
 -3.98389005e+00  2.36202051e+00 -3.11830827e+00 -3.98389005e+00  2.36202051e+00
 -3.11830827e+00 -3.98389005e+00  4.53734784e-02 -2.10256762e+00 -3.39140567e+00
  4.53734784e-02 -2.10256762e+00 -3.39140567e+00  4.53734784e-02 -2.10256762e+00
 -3.39140567e+00  4.53734784e-02 -2.10256762e+00 -3.39140567e+00  4.53734784e-02
 -2.10256762e+00 -3.39140567e+00  4.53734784e-02 -2.10256762e+00 -3.39140567e+00
  4.53734784e-02 -2.10256762e+00 -3.39140567e+00  4.53734784e-02 -2.10256762e+00
 -3.39140567e+00  2.04102220e+00  1.34655201e+00  1.71454150e+00  2.04102220e+00
  1.34655201e+00  1.71454150e+00 -1.64638300e+00 -2.50374059e+00 -4.47479473e+00
 -1.64638300e+00 -2.50374059e+00 -4.47479473e+00  6.16928087e+00 -5.65153641e-01
  5.61804189e-01  6.16928087e+00 -5.65153641e-01  5.61804189e-01 -1.84456430e+00
  4.49121365e+00  2.25259585e+00 -1.84456430e+00  4.49121365e+00  2.25259585e+00
 -1.84456430e+00  4.49121365e+00  2.25259585e+00 -1.84456430e+00  4.49121365e+00
  2.25259585e+00 -1.84456430e+00  4.49121365e+00  2.25259585e+00 -1.84456430e+00
  4.49121365e+00  2.25259585e+00 -1.84456430e+00  4.49121365e+00  2.25259585e+00
 -1.84456430e+00  4.49121365e+00  2.25259585e+00 -5.19562800e+00  2.16616193e+00
  1.88131796e+00 -5.19562800e+00  2.16616193e+00  1.88131796e+00 -3.98171381e-01
  4.35025328e+00  3.73965196e+00 -3.98171381e-01  4.35025328e+00  3.73965196e+00
 -3.69473994e+00  6.63048650e+00  2.91218805e+00 -3.69473994e+00  6.63048650e+00
  2.91218805e+00 -3.69473994e+00  6.63048650e+00  2.91218805e+00 -3.69473994e+00
  6.63048650e+00  2.91218805e+00 -3.69473994e+00  6.63048650e+00  2.91218805e+00
 -3.69473994e+00  6.63048650e+00  2.91218805e+00 -3.69473994e+00  6.63048650e+00
  2.91218805e+00 -3.69473994e+00  6.63048650e+00  2.91218805e+00 -8.34685311e-01
  5.01287094e+00  5.14299279e-01 -8.34685311e-01  5.01287094e+00  5.14299279e-01
 -4.29432653e+00  6.05838304e-01 -2.25129326e+00 -4.29432653e+00  6.05838304e-01
 -2.25129326e+00 -4.29432653e+00  6.05838304e-01 -2.25129326e+00 -4.29432653e+00
  6.05838304e-01 -2.25129326e+00 -4.29432653e+00  6.05838304e-01 -2.25129326e+00
 -4.29432653e+00  6.05838304e-01 -2.25129326e+00 -4.29432653e+00  6.05838304e-01
 -2.25129326e+00 -4.29432653e+00  6.05838304e-01 -2.25129326e+00 -3.85970436e+00
  5.57214107e-01  6.37007374e+00 -3.85970436e+00  5.57214107e-01  6.37007374e+00
 -3.85970436e+00  5.57214107e-01  6.37007374e+00 -3.85970436e+00  5.57214107e-01