Generated by Psi4
     FORCE                           RHF                       TESTBAS
Number of atoms                            I               37
Charge                                     I                0
Multiplicity                               I                1
Number of electrons                        I              120
Number of alpha electrons                  I               60
Number of beta electrons                   I               60
Number of basis functions                  I              346
Number of independent functions            I              346
Atomic numbers                             I   N=          37
           6           6           6           7           6           6
           6           6           6           1           1           1
           6           1           6           1           6           1
           1           1           6           8           1           1
           1           6           1           1           6           1
           1           1           1           1           1           1
           1
Nuclear charges                            R   N=          37
  6.00000000e+00  6.00000000e+00  6.00000000e+00  7.00000000e+00  6.00000000e+00
  6.00000000e+00  6.00000000e+00  6.00000000e+00  6.00000000e+00  1.00000000e+00
  1.00000000e+00  1.00000000e+00  6.00000000e+00  1.00000000e+00  6.00000000e+00
  1.00000000e+00  6.00000000e+00  1.00000000e+00  1.00000000e+00  1.00000000e+00
  6.00000000e+00  8.00000000e+00  1.00000000e+00  1.00000000e+00  1.00000000e+00
  6.00000000e+00  1.00000000e+00  1.00000000e+00  6.00000000e+00  1.00000000e+00
  1.00000000e+00  1.00000000e+00  1.00000000e+00  1.00000000e+00  1.00000000e+00
  1.00000000e+00  1.00000000e+00
Current cartesian coordinates              R   N=         111
  5.03112987e-01 -8.64019806e-01 -1.91061601e+00 -2.17809200e+00 -1.60735351e-01
 -1.33007830e+00 -2.97579094e+00  1.07655255e+00  1.19242691e+00 -1.97950904e+00
 -2.30852032e-01  3.42278589e+00  2.51134441e+00 -6.35491832e-01 -1.86206527e-01
  4.96603583e+00 -1.28413264e+00 -9.00928847e-01  5.50190161e+00 -2.18415333e+00
 -3.33390743e+00  3.48760325e+00 -2.40920795e+00 -5.05067323e+00  1.03634318e+00
 -1.76548656e+00 -4.35642755e+00  2.13038562e+00  1.11818551e-03  1.72230385e+00
 -5.09201049e-01 -1.93373906e+00 -5.69464413e+00  6.49289842e+00 -1.09081037e+00
  4.63145103e-01  8.15148470e+00 -2.94192769e+00 -4.07636395e+00  3.85440716e+00
 -3.09249330e+00 -6.95545258e+00 -2.20886406e+00  3.89586797e+00  1.17098806e+00
 -5.06113568e+00  9.89972952e-01  1.12921630e+00 -3.02085547e+00 -2.77521332e+00
  3.79589732e+00 -2.36726332e+00  8.27926488e-01  4.98276876e+00 -2.42114875e+00
 -3.95424993e+00  2.19903423e+00 -5.11157273e+00 -2.76542975e+00  3.77422112e+00
 -2.06818012e+00 -3.93114075e+00  6.26216338e+00 -3.82501944e+00 -4.43215879e-01
 -2.93849537e+00 -6.04766441e-04 -4.04156191e+00  6.27384345e+00 -2.82826270e+00
 -5.84139837e+00  6.51301870e+00 -2.66118866e+00 -2.80244600e+00  7.90001713e+00
 -3.41860159e+00  5.47676807e+00  3.28693050e+00 -2.78654915e+00  4.69174033e+00
 -6.56376137e-01 -1.43293831e-01  4.05654871e+00  1.27006070e+00 -2.79315605e+00
  8.29746939e+00  3.05238791e+00 -2.78064065e+00  4.80957906e+00  5.14801173e+00
 -5.47923210e+00  5.21596696e+00  3.24093584e+00 -7.46535974e-01  8.62112044e+00
  3.13738694e+00 -3.66874501e+00  9.39040861e+00  4.57945249e+00 -3.47636507e+00
  9.06639190e+00  1.25204322e+00  9.57156279e+00 -1.93783529e+00 -2.95349740e+00
  8.51827085e+00 -2.55474455e+00 -6.07732999e+00  8.45086465e+00 -4.97523974e+00
 -3.77875678e+00
Integer atomic weights                     I   N=          37
          12          12          12          14          12          12
          12          12          12           1           1           1
          12           1          12           1          12           1
           1           1          12          15           1           1
           1          12           1           1          12           1
           1           1           1           1           1           1
           1
Real atomic weights                        R   N=          37
  1.20000000e+01  1.20000000e+01  1.20000000e+01  1.40030740e+01  1.20000000e+01
  1.20000000e+01  1.20000000e+01  1.20000000e+01  1.20000000e+01  1.00782503e+00
  1.00782503e+00  1.00782503e+00  1.20000000e+01  1.00782503e+00  1.20000000e+01
  1.00782503e+00  1.20000000e+01  1.00782503e+00  1.00782503e+00  1.00782503e+00
  1.20000000e+01  1.59949146e+01  1.00782503e+00  1.00782503e+00  1.00782503e+00
  1.20000000e+01  1.00782503e+00  1.00782503e+00  1.20000000e+01  1.00782503e+00
  1.00782503e+00  1.00782503e+00  1.00782503e+00  1.00782503e+00  1.00782503e+00
  1.00782503e+00  1.00782503e+00
Number of primitive shells                 I              356
Number of contracted shells                I              170
Pure/Cartesian d shells                    I                1
Pure/Cartesian f shells                    I                1
Highest angular momentum                   I                2
Largest degree of contraction              I                6
Shell types                                I   N=         170
           0           0           1           0           1           2
           0           1           0           0           1           0
           1           2           0           1           0           0
           1           0           1           2           0           1
           0           0           1           0           1           2
           0           1           0           0           1           0
           1           2           0           1           0           0
           1           0           1           2           0           1
           0           0           1           0           1           2
           0           1           0           0           1           0
           1           2           0           1           0           0
           1           0           1           2           0           1
           0           0           0           0           0           0
           0           0           1           0           1           2
           0           1           0           0           0           0
           1           0           1           2           0           1
           0           0           0           0           1           0
           1           2           0           1           0           0
           0           0           0           0           0           0
           1           0           1           2           0           1
           0           0           1           0           1           2
           0           1           0           0           0           0
           0           0           0           0           1           0
           1           2           0           1           0           0
           0           0           0           0           1           0
           1           2           0           1           0           0
           0           0           0           0           0           0
           0           0           0           0           0           0
           0           0
Number of primitives per shell             I   N=         170
           6           3           3           1           1           1
           1           1           6           3           3           1
           1           1           1           1           6           3
           3           1           1           1           1           1
           6           3           3           1           1           1
           1           1           6           3           3           1
           1           1           1           1           6           3
           3           1           1           1           1           1
           6           3           3           1           1           1
           1           1           6           3           3           1
           1           1           1           1           6           3
           3           1           1           1           1           1
           3           1           3           1           3           1
           6           3           3           1           1           1
           1           1           3           1           6           3
           3           1           1           1           1           1
           3           1           6           3           3           1
           1           1           1           1           3           1
           3           1           3           1           6           3
           3           1           1           1           1           1
           6           3           3           1           1           1
           1           1           3           1           3           1
           3           1           6           3           3           1
           1           1           1           1           3           1
           3           1           6           3           3           1
           1           1           1           1           3           1
           3           1           3           1           3           1
           3           1           3           1           3           1
           3           1
Shell to atom map                          I   N=         170
           1           1           1           1           1           1
           1           1           2           2           2           2
           2           2           2           2           3           3
           3           3           3           3           3           3
           4           4           4           4           4           4
           4           4           5           5           5           5
           5           5           5           5           6           6
           6           6           6           6           6           6
           7           7           7           7           7           7
           7           7           8           8           8           8
           8           8           8           8           9           9
           9           9           9           9           9           9
          10          10          11          11          12          12
          13          13          13          13          13          13
          13          13          14          14          15          15
          15          15          15          15          15          15
          16          16          17          17          17          17
          17          17          17          17          18          18
          19          19          20          20          21          21
          21          21          21          21          21          21
          22          22          22          22          22          22
          22          22          23          23          24          24
          25          25          26          26          26          26
          26          26          26          26          27          27
          28          28          29          29          29          29
          29          29          29          29          30          30
          31          31          32          32          33          33
          34          34          35          35          36          36
          37          37
Primitive exponents                        R   N=         356
  3.04752490e+03  4.57369510e+02  1.03948690e+02  2.92101550e+01  9.28666300e+00
  3.16392700e+00  7.86827240e+00  1.88128850e+00  5.44249300e-01  7.86827240e+00
  1.88128850e+00  5.44249300e-01  1.68714400e-01  1.68714400e-01  8.00000000e-01
  4.38000000e-02  4.38000000e-02  3.04752490e+03  4.57369510e+02  1.03948690e+02
  2.92101550e+01  9.28666300e+00  3.16392700e+00  7.86827240e+00  1.88128850e+00
  5.44249300e-01  7.86827240e+00  1.88128850e+00  5.44249300e-01  1.68714400e-01
  1.68714400e-01  8.00000000e-01  4.38000000e-02  4.38000000e-02  3.04752490e+03
  4.57369510e+02  1.03948690e+02  2.92101550e+01  9.28666300e+00  3.16392700e+00
  7.86827240e+00  1.88128850e+00  5.44249300e-01  7.86827240e+00  1.88128850e+00
  5.44249300e-01  1.68714400e-01  1.68714400e-01  8.00000000e-01  4.38000000e-02
  4.38000000e-02  4.17351100e+03  6.27457900e+02  1.42902100e+02  4.02343300e+01
  1.28202100e+01  4.39043700e+00  1.16263580e+01  2.71628000e+00  7.72218000e-01
  1.16263580e+01  2.71628000e+00  7.72218000e-01  2.12031300e-01  2.12031300e-01
  8.00000000e-01  6.39000000e-02  6.39000000e-02  3.04752490e+03  4.57369510e+02
  1.03948690e+02  2.92101550e+01  9.28666300e+00  3.16392700e+00  7.86827240e+00
  1.88128850e+00  5.44249300e-01  7.86827240e+00  1.88128850e+00  5.44249300e-01
  1.68714400e-01  1.68714400e-01  8.00000000e-01  4.38000000e-02  4.38000000e-02
  3.04752490e+03  4.57369510e+02  1.03948690e+02  2.92101550e+01  9.28666300e+00
  3.16392700e+00  7.86827240e+00  1.88128850e+00  5.44249300e-01  7.86827240e+00
  1.88128850e+00  5.44249300e-01  1.68714400e-01  1.68714400e-01  8.00000000e-01
  4.38000000e-02  4.38000000e-02  3.04752490e+03  4.57369510e+02  1.03948690e+02
  2.92101550e+01  9.28666300e+00  3.16392700e+00  7.86827240e+00  1.88128850e+00
  5.44249300e-01  7.86827240e+00  1.88128850e+00  5.44249300e-01  1.68714400e-01
  1.68714400e-01  8.00000000e-01  4.38000000e-02  4.38000000e-02  3.04752490e+03
  4.57369510e+02  1.03948690e+02  2.92101550e+01  9.28666300e+00  3.16392700e+00
  7.86827240e+00  1.88128850e+00  5.44249300e-01  7.86827240e+00  1.88128850e+00
  5.44249300e-01  1.68714400e-01  1.68714400e-01  8.00000000e-01  4.38000000e-02
  4.38000000e-02  3.04752490e+03  4.57369510e+02  1.03948690e+02  2.92101550e+01
  9.28666300e+00  3.16392700e+00  7.86827240e+00  1.88128850e+00  5.44249300e-01
  7.86827240e+00  1.88128850e+00  5.44249300e-01  1.68714400e-01  1.68714400e-01
  8.00000000e-01  4.38000000e-02  4.38000000e-02  1.87311370e+01  2.82539370e+00
  6.40121700e-01  1.61277800e-01  1.87311370e+01  2.82539370e+00  6.40121700e-01
  1.61277800e-01  1.87311370e+01  2.82539370e+00  6.40121700e-01  1.61277800e-01
  3.04752490e+03  4.57369510e+02  1.03948690e+02  2.92101550e+01  9.28666300e+00
  3.16392700e+00  7.86827240e+00  1.88128850e+00  5.44249300e-01  7.86827240e+00
  1.88128850e+00  5.44249300e-01  1.68714400e-01  1.68714400e-01  8.00000000e-01
  4.38000000e-02  4.38000000e-02  1.87311370e+01  2.82539370e+00  6.40121700e-01
  1.61277800e-01  3.04752490e+03  4.57369510e+02  1.03948690e+02  2.92101550e+01
  9.28666300e+00  3.16392700e+00  7.86827240e+00  1.88128850e+00  5.44249300e-01
  7.86827240e+00  1.88128850e+00  5.44249300e-01  1.68714400e-01  1.68714400e-01
  8.00000000e-01  4.38000000e-02  4.38000000e-02  1.87311370e+01  2.82539370e+00
  6.40121700e-01  1.61277800e-01  3.04752490e+03  4.57369510e+02  1.03948690e+02
  2.92101550e+01  9.28666300e+00  3.16392700e+00  7.86827240e+00  1.88128850e+00
  5.44249300e-01  7.86827240e+00  1.88128850e+00  5.44249300e-01  1.68714400e-01
  1.68714400e-01  8.00000000e-01  4.38000000e-02  4.38000000e-02  1.87311370e+01
  2.82539370e+00  6.40121700e-01  1.61277800e-01  1.87311370e+01  2.82539370e+00
  6.40121700e-01  1.61277800e-01  1.87311370e+01  2.82539370e+00  6.40121700e-01
  1.61277800e-01  3.04752490e+03  4.57369510e+02  1.03948690e+02  2.92101550e+01
  9.28666300e+00  3.16392700e+00  7.86827240e+00  1.88128850e+00  5.44249300e-01
  7.86827240e+00  1.88128850e+00  5.44249300e-01  1.68714400e-01  1.68714400e-01
  8.00000000e-01  4.38000000e-02  4.38000000e-02  5.48467170e+03  8.25234950e+02
  1.88046960e+02  5.29645000e+01  1.68975700e+01  5.79963530e+00  1.55396160e+01
  3.59993360e+00  1.01376180e+00  1.55396160e+01  3.59993360e+00  1.01376180e+00
  2.70005800e-01  2.70005800e-01  8.00000000e-01  8.45000000e-02  8.45000000e-02
  1.87311370e+01  2.82539370e+00  6.40121700e-01  1.61277800e-01  1.87311370e+01
  2.82539370e+00  6.40121700e-01  1.61277800e-01  1.87311370e+01  2.82539370e+00
  6.40121700e-01  1.61277800e-01  3.04752490e+03  4.57369510e+02  1.03948690e+02
  2.92101550e+01  9.28666300e+00  3.16392700e+00  7.86827240e+00  1.88128850e+00
  5.44249300e-01  7.86827240e+00  1.88128850e+00  5.44249300e-01  1.68714400e-01
  1.68714400e-01  8.00000000e-01  4.38000000e-02  4.38000000e-02  1.87311370e+01
  2.82539370e+00  6.40121700e-01  1.61277800e-01  1.87311370e+01  2.82539370e+00
  6.40121700e-01  1.61277800e-01  3.04752490e+03  4.57369510e+02  1.03948690e+02
  2.92101550e+01  9.28666300e+00  3.16392700e+00  7.86827240e+00  1.88128850e+00
  5.44249300e-01  7.86827240e+00  1.88128850e+00  5.44249300e-01  1.68714400e-01
  1.68714400e-01  8.00000000e-01  4.38000000e-02  4.38000000e-02  1.87311370e+01
  2.82539370e+00  6.40121700e-01  1.61277800e-01  1.87311370e+01  2.82539370e+00
  6.40121700e-01  1.61277800e-01  1.87311370e+01  2.82539370e+00  6.40121700e-01
  1.61277800e-01  1.87311370e+01  2.82539370e+00  6.40121700e-01  1.61277800e-01
  1.87311370e+01  2.82539370e+00  6.40121700e-01  1.61277800e-01  1.87311370e+01
  2.82539370e+00  6.40121700e-01  1.61277800e-01  1.87311370e+01  2.82539370e+00
  6.40121700e-01  1.61277800e-01  1.87311370e+01  2.82539370e+00  6.40121700e-01
  1.61277800e-01
Contraction coefficients                   R   N=         356
  1.83470016e-03  1.40373012e-02  6.88426061e-02  2.32184421e-01  4.67941342e-01
  3.62312032e-01 -1.19332409e-01 -1.60854212e-01  1.14345648e+00  6.89990956e-02
  3.16423980e-01  7.44308252e-01  1.00000000e+00  1.00000000e+00  1.00000000e+00
  1.00000000e+00  1.00000000e+00  1.83470016e-03  1.40373012e-02  6.88426061e-02
  2.32184421e-01  4.67941342e-01  3.62312032e-01 -1.19332409e-01 -1.60854212e-01
  1.14345648e+00  6.89990956e-02  3.16423980e-01  7.44308252e-01  1.00000000e+00
  1.00000000e+00  1.00000000e+00  1.00000000e+00  1.00000000e+00  1.83470016e-03
  1.40373012e-02  6.88426061e-02  2.32184421e-01  4.67941342e-01  3.62312032e-01
 -1.19332409e-01 -1.60854212e-01  1.14345648e+00  6.89990956e-02  3.16423980e-01
  7.44308252e-01  1.00000000e+00  1.00000000e+00  1.00000000e+00  1.00000000e+00
  1.00000000e+00  1.83479944e-03  1.39949958e-02  6.85869792e-02  2.32240930e-01
  4.69069858e-01  3.60454891e-01 -1.14961023e-01 -1.69118034e-01  1.14585223e+00
  6.75800232e-02  3.23907111e-01  7.40895255e-01  1.00000000e+00  1.00000000e+00
  1.00000000e+00  1.00000000e+00  1.00000000e+00  1.83470016e-03  1.40373012e-02
  6.88426061e-02  2.32184421e-01  4.67941342e-01  3.62312032e-01 -1.19332409e-01
 -1.60854212e-01  1.14345648e+00  6.89990956e-02  3.16423980e-01  7.44308252e-01
  1.00000000e+00  1.00000000e+00  1.00000000e+00  1.00000000e+00  1.00000000e+00
  1.83470016e-03  1.40373012e-02  6.88426061e-02  2.32184421e-01  4.67941342e-01
  3.62312032e-01 -1.19332409e-01 -1.60854212e-01  1.14345648e+00  6.89990956e-02
  3.16423980e-01  7.44308252e-01  1.00000000e+00  1.00000000e+00  1.00000000e+00
  1.00000000e+00  1.00000000e+00  1.83470016e-03  1.40373012e-02  6.88426061e-02
  2.32184421e-01  4.67941342e-01  3.62312032e-01 -1.19332409e-01 -1.60854212e-01
  1.14345648e+00  6.89990956e-02  3.16423980e-01  7.44308252e-01  1.00000000e+00
  1.00000000e+00  1.00000000e+00  1.00000000e+00  1.00000000e+00  1.83470016e-03
  1.40373012e-02  6.88426061e-02  2.32184421e-01  4.67941342e-01  3.62312032e-01
 -1.19332409e-01 -1.60854212e-01  1.14345648e+00  6.89990956e-02  3.16423980e-01
  7.44308252e-01  1.00000000e+00  1.00000000e+00  1.00000000e+00  1.00000000e+00
  1.00000000e+00  1.83470016e-03  1.40373012e-02  6.88426061e-02  2.32184421e-01
  4.67941342e-01  3.62312032e-01 -1.19332409e-01 -1.60854212e-01  1.14345648e+00
  6.89990956e-02  3.16423980e-01  7.44308252e-01  1.00000000e+00  1.00000000e+00
  1.00000000e+00  1.00000000e+00  1.00000000e+00  3.34945995e-02  2.34726947e-01
  8.13757318e-01  1.00000000e+00  3.34945995e-02  2.34726947e-01  8.13757318e-01
  1.00000000e+00  3.34945995e-02  2.34726947e-01  8.13757318e-01  1.00000000e+00
  1.83470016e-03  1.40373012e-02  6.88426061e-02  2.32184421e-01  4.67941342e-01
  3.62312032e-01 -1.19332409e-01 -1.60854212e-01  1.14345648e+00  6.89990956e-02
  3.16423980e-01  7.44308252e-01  1.00000000e+00  1.00000000e+00  1.00000000e+00
  1.00000000e+00  1.00000000e+00  3.34945995e-02  2.34726947e-01  8.13757318e-01
  1.00000000e+00  1.83470016e-03  1.40373012e-02  6.88426061e-02  2.32184421e-01
  4.67941342e-01  3.62312032e-01 -1.19332409e-01 -1.60854212e-01  1.14345648e+00
  6.89990956e-02  3.16423980e-01  7.44308252e-01  1.00000000e+00  1.00000000e+00
  1.00000000e+00  1.00000000e+00  1.00000000e+00  3.34945995e-02  2.34726947e-01
  8.13757318e-01  1.00000000e+00  1.83470016e-03  1.40373012e-02  6.88426061e-02
  2.32184421e-01  4.67941342e-01  3.62312032e-01 -1.19332409e-01 -1.60854212e-01
  1.14345648e+00  6.89990956e-02  3.16423980e-01  7.44308252e-01  1.00000000e+00
  1.00000000e+00  1.00000000e+00  1.00000000e+00  1.00000000e+00  3.34945995e-02
  2.34726947e-01  8.13757318e-01  1.00000000e+00  3.34945995e-02  2.34726947e-01
  8.13757318e-01  1.00000000e+00  3.34945995e-02  2.34726947e-01  8.13757318e-01
  1.00000000e+00  1.83470016e-03  1.40373012e-02  6.88426061e-02  2.32184421e-01
  4.67941342e-01  3.62312032e-01 -1.19332409e-01 -1.60854212e-01  1.14345648e+00
  6.89990956e-02  3.16423980e-01  7.44308252e-01  1.00000000e+00  1.00000000e+00
  1.00000000e+00  1.00000000e+00  1.00000000e+00  1.83109981e-03  1.39500985e-02
  6.84450927e-02  2.32714275e-01  4.70192950e-01  3.58520862e-01 -1.10777504e-01
 -1.48026305e-01  1.13076704e+00  7.08742995e-02  3.39752798e-01  7.27158595e-01
  1.00000000e+00  1.00000000e+00  1.00000000e+00  1.00000000e+00  1.00000000e+00
  3.34945995e-02  2.34726947e-01  8.13757318e-01  1.00000000e+00  3.34945995e-02
  2.34726947e-01  8.13757318e-01  1.00000000e+00  3.34945995e-02  2.34726947e-01
  8.13757318e-01  1.00000000e+00  1.83470016e-03  1.40373012e-02  6.88426061e-02
  2.32184421e-01  4.67941342e-01  3.62312032e-01 -1.19332409e-01 -1.60854212e-01
  1.14345648e+00  6.89990956e-02  3.16423980e-01  7.44308252e-01  1.00000000e+00
  1.00000000e+00  1.00000000e+00  1.00000000e+00  1.00000000e+00  3.34945995e-02
  2.34726947e-01  8.13757318e-01  1.00000000e+00  3.34945995e-02  2.34726947e-01
  8.13757318e-01  1.00000000e+00  1.83470016e-03  1.40373012e-02  6.88426061e-02
  2.32184421e-01  4.67941342e-01  3.62312032e-01 -1.19332409e-01 -1.60854212e-01
  1.14345648e+00  6.89990956e-02  3.16423980e-01  7.44308252e-01  1.00000000e+00
  1.00000000e+00  1.00000000e+00  1.00000000e+00  1.00000000e+00  3.34945995e-02
  2.34726947e-01  8.13757318e-01  1.00000000e+00  3.34945995e-02  2.34726947e-01
  8.13757318e-01  1.00000000e+00  3.34945995e-02  2.34726947e-01  8.13757318e-01
  1.00000000e+00  3.34945995e-02  2.34726947e-01  8.13757318e-01  1.00000000e+00
  3.34945995e-02  2.34726947e-01  8.13757318e-01  1.00000000e+00  3.34945995e-02
  2.34726947e-01  8.13757318e-01  1.00000000e+00  3.34945995e-02  2.34726947e-01
  8.13757318e-01  1.00000000e+00  3.34945995e-02  2.34726947e-01  8.13757318e-01
  1.00000000e+00
Coordinates of each shell                  R   N=         510
  5.03112987e-01 -8.64019806e-01 -1.91061601e+00  5.03112987e-01 -8.64019806e-01
 -1.91061601e+00  5.03112987e-01 -8.64019806e-01 -1.91061601e+00  5.03112987e-01
 -8.64019806e-01 -1.91061601e+00  5.03112987e-01 -8.64019806e-01 -1.91061601e+00
  5.03112987e-01 -8.64019806e-01 -1.91061601e+00  5.03112987e-01 -8.64019806e-01
 -1.91061601e+00  5.03112987e-01 -8.64019806e-01 -1.91061601e+00 -2.17809200e+00
 -1.60735351e-01 -1.33007830e+00 -2.17809200e+00 -1.60735351e-01 -1.33007830e+00
 -2.17809200e+00 -1.60735351e-01 -1.33007830e+00 -2.17809200e+00 -1.60735351e-01
 -1.33007830e+00 -2.17809200e+00 -1.60735351e-01 -1.33007830e+00 -2.17809200e+00
 -1.60735351e-01 -1.33007830e+00 -2.17809200e+00 -1.60735351e-01 -1.33007830e+00
 -2.17809200e+00 -1.60735351e-01 -1.33007830e+00 -2.97579094e+00  1.07655255e+00
  1.19242691e+00 -2.97579094e+00  1.07655255e+00  1.19242691e+00 -2.97579094e+00
  1.07655255e+00  1.19242691e+00 -2.97579094e+00  1.07655255e+00  1.19242691e+00
 -2.97579094e+00  1.07655255e+00  1.19242691e+00 -2.97579094e+00  1.07655255e+00
  1.19242691e+00 -2.97579094e+00  1.07655255e+00  1.19242691e+00 -2.97579094e+00
  1.07655255e+00  1.19242691e+00 -1.97950904e+00 -2.30852032e-01  3.42278589e+00
 -1.97950904e+00 -2.30852032e-01  3.42278589e+00 -1.97950904e+00 -2.30852032e-01
  3.42278589e+00 -1.97950904e+00 -2.30852032e-01  3.42278589e+00 -1.97950904e+00
 -2.30852032e-01  3.42278589e+00 -1.97950904e+00 -2.30852032e-01  3.42278589e+00
 -1.97950904e+00 -2.30852032e-01  3.42278589e+00 -1.97950904e+00 -2.30852032e-01
  3.42278589e+00  2.51134441e+00 -6.35491832e-01 -1.86206527e-01  2.51134441e+00
 -6.35491832e-01 -1.86206527e-01  2.51134441e+00 -6.35491832e-01 -1.86206527e-01
  2.51134441e+00 -6.35491832e-01 -1.86206527e-01  2.51134441e+00 -6.35491832e-01
 -1.86206527e-01  2.51134441e+00 -6.35491832e-01 -1.86206527e-01  2.51134441e+00
 -6.35491832e-01 -1.86206527e-01  2.51134441e+00 -6.35491832e-01 -1.86206527e-01
  4.96603583e+00 -1.28413264e+00 -9.00928847e-01  4.96603583e+00 -1.28413264e+00
 -9.00928847e-01  4.96603583e+00 -1.28413264e+00 -9.00928847e-01  4.96603583e+00
 -1.28413264e+00 -9.00928847e-01  4.96603583e+00 -1.28413264e+00 -9.00928847e-01
  4.96603583e+00 -1.28413264e+00 -9.00928847e-01  4.96603583e+00 -1.28413264e+00
 -9.00928847e-01  4.96603583e+00 -1.28413264e+00 -9.00928847e-01  5.50190161e+00
 -2.18415333e+00 -3.33390743e+00  5.50190161e+00 -2.18415333e+00 -3.33390743e+00
  5.50190161e+00 -2.18415333e+00 -3.33390743e+00  5.50190161e+00 -2.18415333e+00
 -3.33390743e+00  5.50190161e+00 -2.18415333e+00 -3.33390743e+00  5.50190161e+00
 -2.18415333e+00 -3.33390743e+00  5.50190161e+00 -2.18415333e+00 -3.33390743e+00
  5.50190161e+00 -2.18415333e+00 -3.33390743e+00  3.48760325e+00 -2.40920795e+00
 -5.05067323e+00  3.48760325e+00 -2.40920795e+00 -5.05067323e+00  3.48760325e+00
 -2.40920795e+00 -5.05067323e+00  3.48760325e+00 -2.40920795e+00 -5.05067323e+00
  3.48760325e+00 -2.40920795e+00 -5.05067323e+00  3.48760325e+00 -2.40920795e+00
 -5.05067323e+00  3.48760325e+00 -2.40920795e+00 -5.05067323e+00  3.48760325e+00
 -2.40920795e+00 -5.05067323e+00  1.03634318e+00 -1.76548656e+00 -4.35642755e+00
  1.03634318e+00 -1.76548656e+00 -4.35642755e+00  1.03634318e+00 -1.76548656e+00
 -4.35642755e+00  1.03634318e+00 -1.76548656e+00 -4.35642755e+00  1.03634318e+00
 -1.76548656e+00 -4.35642755e+00  1.03634318e+00 -1.76548656e+00 -4.35642755e+00
  1.03634318e+00 -1.76548656e+00 -4.35642755e+00  1.03634318e+00 -1.76548656e+00
 -4.35642755e+00  2.13038562e+00  1.11818551e-03  1.72230385e+00  2.13038562e+00
  1.11818551e-03  1.72230385e+00 -5.09201049e-01 -1.93373906e+00 -5.69464413e+00
 -5.09201049e-01 -1.93373906e+00 -5.69464413e+00  6.49289842e+00 -1.09081037e+00
  4.63145103e-01  6.49289842e+00 -1.09081037e+00  4.63145103e-01  8.15148470e+00
 -2.94192769e+00 -4.07636395e+00  8.15148470e+00 -2.94192769e+00 -4.07636395e+00
  8.15148470e+00 -2.94192769e+00 -4.07636395e+00  8.15148470e+00 -2.94192769e+00
 -4.07636395e+00  8.15148470e+00 -2.94192769e+00 -4.07636395e+00  8.15148470e+00
 -2.94192769e+00 -4.07636395e+00  8.15148470e+00 -2.94192769e+00 -4.07636395e+00
  8.15148470e+00 -2.94192769e+00 -4.07636395e+00  3.85440716e+00 -3.09249330e+00
 -6.95545258e+00  3.85440716e+00 -3.09249330e+00 -6.95545258e+00 -2.20886406e+00
  3.89586797e+00  1.17098806e+00 -2.20886406e+00  3.89586797e+00  1.17098806e+00
 -2.20886406e+00  3.89586797e+00  1.17098806e+00 -2.20886406e+00  3.89586797e+00
  1.17098806e+00 -2.20886406e+00  3.89586797e+00  1.17098806e+00 -2.20886406e+00
  3.89586797e+00  1.17098806e+00 -2.20886406e+00  3.89586797e+00  1.17098806e+00
 -2.20886406e+00  3.89586797e+00  1.17098806e+00 -5.06113568e+00  9.89972952e-01
  1.12921630e+00 -5.06113568e+00  9.89972952e-01  1.12921630e+00 -3.02085547e+00
 -2.77521332e+00  3.79589732e+00 -3.02085547e+00 -2.77521332e+00  3.79589732e+00
 -3.02085547e+00 -2.77521332e+00  3.79589732e+00 -3.02085547e+00 -2.77521332e+00
  3.79589732e+00 -3.02085547e+00 -2.77521332e+00  3.79589732e+00 -3.02085547e+00
 -2.77521332e+00  3.79589732e+00 -3.02085547e+00 -2.77521332e+00  3.79589732e+00
 -3.02085547e+00 -2.77521332e+00  3.79589732e+00 -2.36726332e+00  8.27926488e-01
  4.98276876e+00 -2.36726332e+00  8.27926488e-01  4.98276876e+00 -2.42114875e+00
 -3.95424993e+00  2.19903423e+00 -2.42114875e+00 -3.95424993e+00  2.19903423e+00
 -5.11157273e+00 -2.76542975e+00  3.77422112e+00 -5.11157273e+00 -2.76542975e+00
  3.77422112e+00 -2.06818012e+00 -3.93114075e+00  6.26216338e+00 -2.06818012e+00
 -3.93114075e+00  6.26216338e+00 -2.06818012e+00 -3.93114075e+00  6.26216338e+00
 -2.06818012e+00 -3.93114075e+00  6.26216338e+00 -2.06818012e+00 -3.93114075e+00
  6.26216338e+00 -2.06818012e+00 -3.93114075e+00  6.26216338e+00 -2.06818012e+00
 -3.93114075e+00  6.26216338e+00 -2.06818012e+00 -3.93114075e+00  6.26216338e+00
 -3.82501944e+00 -4.43215879e-01 -2.93849537e+00 -3.82501944e+00 -4.43215879e-01
 -2.93849537e+00 -3.82501944e+00 -4.43215879e-01 -2.93849537e+00 -3.82501944e+00
 -4.43215879e-01 -2.93849537e+00 -3.82501944e+00 -4.43215879e-01 -2.93849537e+00
 -3.82501944e+00 -4.43215879e-01 -2.93849537e+00 -3.82501944e+00 -4.43215879e-01
 -2.93849537e+00 -3.82501944e+00 -4.43215879e-01 -2.93849537e+00 -6.04766441e-04
 -4.04156191e+00  6.27384345e+00 -6.04766441e-04 -4.04156191e+00  6.27384345e+00
 -2.82826270e+00 -5.84139837e+00  6.51301870e+00 -2.82826270e+00 -5.84139837e+00
  6.51301870e+00 -2.66118866e+00 -2.80244600e+00  7.90001713e+00 -2.66118866e+00
 -2.80244600e+00  7.90001713e+00 -3.41860159e+00  5.47676807e+00  3.28693050e+00
 -3.41860159e+00  5.47676807e+00  3.28693050e+00 -3.41860159e+00  5.47676807e+00