Generated by Psi4
     FORCE                           RHF                       TESTBAS
Number of atoms                            I               37
Charge                                     I                0
Multiplicity                               I                1
Number of electrons                        I              120
Number of alpha electrons                  I               60
Number of beta electrons                   I               60
Number of basis functions                  I              346
Number of independent functions            I              346
Atomic numbers                             I   N=          37
           6           6           6           7           6           6
           6           6           6           1           1           1
           6           1           1           6           1           8
           6           1           1           1           6           1
           1           6           1           1           1           1
           1           1           6           1           1           1
           1
Nuclear charges                            R   N=          37
  6.00000000e+00  6.00000000e+00  6.00000000e+00  7.00000000e+00  6.00000000e+00
  6.00000000e+00  6.00000000e+00  6.00000000e+00  6.00000000e+00  1.00000000e+00
  1.00000000e+00  1.00000000e+00  6.00000000e+00  1.00000000e+00  1.00000000e+00
  6.00000000e+00  1.00000000e+00  8.00000000e+00  6.00000000e+00  1.00000000e+00
  1.00000000e+00  1.00000000e+00  6.00000000e+00  1.00000000e+00  1.00000000e+00
  6.00000000e+00  1.00000000e+00  1.00000000e+00  1.00000000e+00  1.00000000e+00
  1.00000000e+00  1.00000000e+00  6.00000000e+00  1.00000000e+00  1.00000000e+00
  1.00000000e+00  1.00000000e+00
Current cartesian coordinates              R   N=         111
  1.30265019e+00 -1.10419283e+00 -3.05134177e+00 -1.29873115e+00 -1.52056037e-01
 -2.41456746e+00 -1.91119131e+00  8.91964038e-01  2.29763276e-01 -1.25741590e+00
 -1.01238741e+00  2.13713406e+00  3.48516403e+00 -3.97160911e-01 -1.71681042e+00
  5.85524581e+00 -1.30841230e+00 -2.43901364e+00  6.06929977e+00 -2.96014560e+00
 -4.48721002e+00  3.90587467e+00 -3.67802484e+00 -5.82855704e+00  1.54641132e+00
 -2.74452300e+00 -5.12570235e+00  3.36618294e+00  9.12869937e-01 -1.42545360e-01
 -1.45608367e-01 -3.26742686e+00 -6.16077481e+00  7.53095564e+00 -7.24697526e-01
 -1.40432518e+00 -8.48623089e-01  3.62340868e+00  6.30797676e-01 -3.97789843e+00
  1.01081299e+00  2.25739213e-01  6.66909206e-01  3.55561617e+00  2.05228184e+00
 -2.86241710e+00  5.54453625e+00  1.46012339e+00  3.22219715e-02  4.31558985e+00
 -1.11863572e+00 -2.96915771e+00 -2.17633902e-01 -4.01269859e+00 -2.39883848e+00
 -6.39843456e-01  4.62934846e+00  6.49928390e-01 -1.19474970e+00  2.30854843e+00
 -3.77745799e+00  4.88064175e+00  3.20136319e+00 -4.35078264e+00  5.61876743e+00
  1.41800665e-02 -1.78517135e+00  8.20002479e+00  1.88067349e+00 -4.45563273e+00
 -5.38669831e-01  4.36581575e+00 -1.82308732e+00  1.15853667e+00  5.52993725e+00
 -1.76090609e+00 -2.83418985e+00  6.40451789e+00 -3.32894834e-01  8.19733160e+00
  3.36210087e+00 -3.26653272e+00  9.52996363e+00  2.45550245e+00 -9.13689517e-01
  8.93800778e+00  1.49379214e-01  4.06356392e+00 -4.96258938e+00 -7.42359714e+00
  7.91200335e+00 -3.68046465e+00 -5.04001066e+00 -2.37909024e+00 -4.60230984e+00
  5.51553759e+00 -2.97062614e+00 -2.54548471e+00  9.02092804e+00  3.04111886e-01
 -2.96899295e+00  6.61007650e+00 -5.03880099e+00 -2.46814878e+00  8.88676590e+00
 -2.33674387e+00 -8.09862989e-01  9.96325976e+00 -2.48208486e+00 -4.14025396e+00
  1.02491618e+01
Integer atomic weights                     I   N=          37
          12          12          12          14          12          12
          12          12          12           1           1           1
          12           1           1          12           1          15
          12           1           1           1          12           1
           1          12           1           1           1           1
           1           1          12           1           1           1
           1
Real atomic weights                        R   N=          37
  1.20000000e+01  1.20000000e+01  1.20000000e+01  1.40030740e+01  1.20000000e+01
  1.20000000e+01  1.20000000e+01  1.20000000e+01  1.20000000e+01  1.00782503e+00
  1.00782503e+00  1.00782503e+00  1.20000000e+01  1.00782503e+00  1.00782503e+00
  1.20000000e+01  1.00782503e+00  1.59949146e+01  1.20000000e+01  1.00782503e+00
  1.00782503e+00  1.00782503e+00  1.20000000e+01  1.00782503e+00  1.00782503e+00
  1.20000000e+01  1.00782503e+00  1.00782503e+00  1.00782503e+00  1.00782503e+00
  1.00782503e+00  1.00782503e+00  1.20000000e+01  1.00782503e+00  1.00782503e+00
  1.00782503e+00  1.00782503e+00
Number of primitive shells                 I              356
Number of contracted shells                I              170
Pure/Cartesian d shells                    I                1
Pure/Cartesian f shells                    I                1
Highest angular momentum                   I                2
Largest degree of contraction              I                6
Shell types                                I   N=         170
           0           0           1           0           1           2
           0           1           0           0           1           0
           1           2           0           1           0           0
           1           0           1           2           0           1
           0           0           1           0           1           2
           0           1           0           0           1           0
           1           2           0           1           0           0
           1           0           1           2           0           1
           0           0           1           0           1           2
           0           1           0           0           1           0
           1           2           0           1           0           0
           1           0           1           2           0           1
           0           0           0           0           0           0
           0           0           1           0           1           2
           0           1           0           0           0           0
           0           0           1           0           1           2
           0           1           0           0           0           0
           1           0           1           2           0           1
           0           0           1           0           1           2
           0           1           0           0           0           0
           0           0           0           0           1           0
           1           2           0           1           0           0
           0           0           0           0           1           0
           1           2           0           1           0           0
           0           0           0           0           0           0
           0           0           0           0           0           0
           1           0           1           2           0           1
           0           0           0           0           0           0
           0           0
Number of primitives per shell             I   N=         170
           6           3           3           1           1           1
           1           1           6           3           3           1
           1           1           1           1           6           3
           3           1           1           1           1           1
           6           3           3           1           1           1
           1           1           6           3           3           1
           1           1           1           1           6           3
           3           1           1           1           1           1
           6           3           3           1           1           1
           1           1           6           3           3           1
           1           1           1           1           6           3
           3           1           1           1           1           1
           3           1           3           1           3           1
           6           3           3           1           1           1
           1           1           3           1           3           1
           6           3           3           1           1           1
           1           1           3           1           6           3
           3           1           1           1           1           1
           6           3           3           1           1           1
           1           1           3           1           3           1
           3           1           6           3           3           1
           1           1           1           1           3           1
           3           1           6           3           3           1
           1           1           1           1           3           1
           3           1           3           1           3           1
           3           1           3           1           6           3
           3           1           1           1           1           1
           3           1           3           1           3           1
           3           1
Shell to atom map                          I   N=         170
           1           1           1           1           1           1
           1           1           2           2           2           2
           2           2           2           2           3           3
           3           3           3           3           3           3
           4           4           4           4           4           4
           4           4           5           5           5           5
           5           5           5           5           6           6
           6           6           6           6           6           6
           7           7           7           7           7           7
           7           7           8           8           8           8
           8           8           8           8           9           9
           9           9           9           9           9           9
          10          10          11          11          12          12
          13          13          13          13          13          13
          13          13          14          14          15          15
          16          16          16          16          16          16
          16          16          17          17          18          18
          18          18          18          18          18          18
          19          19          19          19          19          19
          19          19          20          20          21          21
          22          22          23          23          23          23
          23          23          23          23          24          24
          25          25          26          26          26          26
          26          26          26          26          27          27
          28          28          29          29          30          30
          31          31          32          32          33          33
          33          33          33          33          33          33
          34          34          35          35          36          36
          37          37
Primitive exponents                        R   N=         356
  3.04752490e+03  4.57369510e+02  1.03948690e+02  2.92101550e+01  9.28666300e+00
  3.16392700e+00  7.86827240e+00  1.88128850e+00  5.44249300e-01  7.86827240e+00
  1.88128850e+00  5.44249300e-01  1.68714400e-01  1.68714400e-01  8.00000000e-01
  4.38000000e-02  4.38000000e-02  3.04752490e+03  4.57369510e+02  1.03948690e+02
  2.92101550e+01  9.28666300e+00  3.16392700e+00  7.86827240e+00  1.88128850e+00
  5.44249300e-01  7.86827240e+00  1.88128850e+00  5.44249300e-01  1.68714400e-01
  1.68714400e-01  8.00000000e-01  4.38000000e-02  4.38000000e-02  3.04752490e+03
  4.57369510e+02  1.03948690e+02  2.92101550e+01  9.28666300e+00  3.16392700e+00
  7.86827240e+00  1.88128850e+00  5.44249300e-01  7.86827240e+00  1.88128850e+00
  5.44249300e-01  1.68714400e-01  1.68714400e-01  8.00000000e-01  4.38000000e-02
  4.38000000e-02  4.17351100e+03  6.27457900e+02  1.42902100e+02  4.02343300e+01
  1.28202100e+01  4.39043700e+00  1.16263580e+01  2.71628000e+00  7.72218000e-01
  1.16263580e+01  2.71628000e+00  7.72218000e-01  2.12031300e-01  2.12031300e-01
  8.00000000e-01  6.39000000e-02  6.39000000e-02  3.04752490e+03  4.57369510e+02
  1.03948690e+02  2.92101550e+01  9.28666300e+00  3.16392700e+00  7.86827240e+00
  1.88128850e+00  5.44249300e-01  7.86827240e+00  1.88128850e+00  5.44249300e-01
  1.68714400e-01  1.68714400e-01  8.00000000e-01  4.38000000e-02  4.38000000e-02
  3.04752490e+03  4.57369510e+02  1.03948690e+02  2.92101550e+01  9.28666300e+00
  3.16392700e+00  7.86827240e+00  1.88128850e+00  5.44249300e-01  7.86827240e+00
  1.88128850e+00  5.44249300e-01  1.68714400e-01  1.68714400e-01  8.00000000e-01
  4.38000000e-02  4.38000000e-02  3.04752490e+03  4.57369510e+02  1.03948690e+02
  2.92101550e+01  9.28666300e+00  3.16392700e+00  7.86827240e+00  1.88128850e+00
  5.44249300e-01  7.86827240e+00  1.88128850e+00  5.44249300e-01  1.68714400e-01
  1.68714400e-01  8.00000000e-01  4.38000000e-02  4.38000000e-02  3.04752490e+03
  4.57369510e+02  1.03948690e+02  2.92101550e+01  9.28666300e+00  3.16392700e+00
  7.86827240e+00  1.88128850e+00  5.44249300e-01  7.86827240e+00  1.88128850e+00
  5.44249300e-01  1.68714400e-01  1.68714400e-01  8.00000000e-01  4.38000000e-02
  4.38000000e-02  3.04752490e+03  4.57369510e+02  1.03948690e+02  2.92101550e+01
  9.28666300e+00  3.16392700e+00  7.86827240e+00  1.88128850e+00  5.44249300e-01
  7.86827240e+00  1.88128850e+00  5.44249300e-01  1.68714400e-01  1.68714400e-01
  8.00000000e-01  4.38000000e-02  4.38000000e-02  1.87311370e+01  2.82539370e+00
  6.40121700e-01  1.61277800e-01  1.87311370e+01  2.82539370e+00  6.40121700e-01
  1.61277800e-01  1.87311370e+01  2.82539370e+00  6.40121700e-01  1.61277800e-01
  3.04752490e+03  4.57369510e+02  1.03948690e+02  2.92101550e+01  9.28666300e+00
  3.16392700e+00  7.86827240e+00  1.88128850e+00  5.44249300e-01  7.86827240e+00
  1.88128850e+00  5.44249300e-01  1.68714400e-01  1.68714400e-01  8.00000000e-01
  4.38000000e-02  4.38000000e-02  1.87311370e+01  2.82539370e+00  6.40121700e-01
  1.61277800e-01  1.87311370e+01  2.82539370e+00  6.40121700e-01  1.61277800e-01
  3.04752490e+03  4.57369510e+02  1.03948690e+02  2.92101550e+01  9.28666300e+00
  3.16392700e+00  7.86827240e+00  1.88128850e+00  5.44249300e-01  7.86827240e+00
  1.88128850e+00  5.44249300e-01  1.68714400e-01  1.68714400e-01  8.00000000e-01
  4.38000000e-02  4.38000000e-02  1.87311370e+01  2.82539370e+00  6.40121700e-01
  1.61277800e-01  5.48467170e+03  8.25234950e+02  1.88046960e+02  5.29645000e+01
  1.68975700e+01  5.79963530e+00  1.55396160e+01  3.59993360e+00  1.01376180e+00
  1.55396160e+01  3.59993360e+00  1.01376180e+00  2.70005800e-01  2.70005800e-01
  8.00000000e-01  8.45000000e-02  8.45000000e-02  3.04752490e+03  4.57369510e+02
  1.03948690e+02  2.92101550e+01  9.28666300e+00  3.16392700e+00  7.86827240e+00
  1.88128850e+00  5.44249300e-01  7.86827240e+00  1.88128850e+00  5.44249300e-01
  1.68714400e-01  1.68714400e-01  8.00000000e-01  4.38000000e-02  4.38000000e-02
  1.87311370e+01  2.82539370e+00  6.40121700e-01  1.61277800e-01  1.87311370e+01
  2.82539370e+00  6.40121700e-01  1.61277800e-01  1.87311370e+01  2.82539370e+00
  6.40121700e-01  1.61277800e-01  3.04752490e+03  4.57369510e+02  1.03948690e+02
  2.92101550e+01  9.28666300e+00  3.16392700e+00  7.86827240e+00  1.88128850e+00
  5.44249300e-01  7.86827240e+00  1.88128850e+00  5.44249300e-01  1.68714400e-01
  1.68714400e-01  8.00000000e-01  4.38000000e-02  4.38000000e-02  1.87311370e+01
  2.82539370e+00  6.40121700e-01  1.61277800e-01  1.87311370e+01  2.82539370e+00
  6.40121700e-01  1.61277800e-01  3.04752490e+03  4.57369510e+02  1.03948690e+02
  2.92101550e+01  9.28666300e+00  3.16392700e+00  7.86827240e+00  1.88128850e+00
  5.44249300e-01  7.86827240e+00  1.88128850e+00  5.44249300e-01  1.68714400e-01
  1.68714400e-01  8.00000000e-01  4.38000000e-02  4.38000000e-02  1.87311370e+01
  2.82539370e+00  6.40121700e-01  1.61277800e-01  1.87311370e+01  2.82539370e+00
  6.40121700e-01  1.61277800e-01  1.87311370e+01  2.82539370e+00  6.40121700e-01
  1.61277800e-01  1.87311370e+01  2.82539370e+00  6.40121700e-01  1.61277800e-01
  1.87311370e+01  2.82539370e+00  6.40121700e-01  1.61277800e-01  1.87311370e+01
  2.82539370e+00  6.40121700e-01  1.61277800e-01  3.04752490e+03  4.57369510e+02
  1.03948690e+02  2.92101550e+01  9.28666300e+00  3.16392700e+00  7.86827240e+00
  1.88128850e+00  5.44249300e-01  7.86827240e+00  1.88128850e+00  5.44249300e-01
  1.68714400e-01  1.68714400e-01  8.00000000e-01  4.38000000e-02  4.38000000e-02
  1.87311370e+01  2.82539370e+00  6.40121700e-01  1.61277800e-01  1.87311370e+01
  2.82539370e+00  6.40121700e-01  1.61277800e-01  1.87311370e+01  2.82539370e+00
  6.40121700e-01  1.61277800e-01  1.87311370e+01  2.82539370e+00  6.40121700e-01
  1.61277800e-01
Contraction coefficients                   R   N=         356
  1.83470016e-03  1.40373012e-02  6.88426061e-02  2.32184421e-01  4.67941342e-01
  3.62312032e-01 -1.19332409e-01 -1.60854212e-01  1.14345648e+00  6.89990956e-02
  3.16423980e-01  7.44308252e-01  1.00000000e+00  1.00000000e+00  1.00000000e+00
  1.00000000e+00  1.00000000e+00  1.83470016e-03  1.40373012e-02  6.88426061e-02
  2.32184421e-01  4.67941342e-01  3.62312032e-01 -1.19332409e-01 -1.60854212e-01
  1.14345648e+00  6.89990956e-02  3.16423980e-01  7.44308252e-01  1.00000000e+00
  1.00000000e+00  1.00000000e+00  1.00000000e+00  1.00000000e+00  1.83470016e-03
  1.40373012e-02  6.88426061e-02  2.32184421e-01  4.67941342e-01  3.62312032e-01
 -1.19332409e-01 -1.60854212e-01  1.14345648e+00  6.89990956e-02  3.16423980e-01
  7.44308252e-01  1.00000000e+00  1.00000000e+00  1.00000000e+00  1.00000000e+00
  1.00000000e+00  1.83479944e-03  1.39949958e-02  6.85869792e-02  2.32240930e-01
  4.69069858e-01  3.60454891e-01 -1.14961023e-01 -1.69118034e-01  1.14585223e+00
  6.75800232e-02  3.23907111e-01  7.40895255e-01  1.00000000e+00  1.00000000e+00
  1.00000000e+00  1.00000000e+00  1.00000000e+00  1.83470016e-03  1.40373012e-02
  6.88426061e-02  2.32184421e-01  4.67941342e-01  3.62312032e-01 -1.19332409e-01
 -1.60854212e-01  1.14345648e+00  6.89990956e-02  3.16423980e-01  7.44308252e-01
  1.00000000e+00  1.00000000e+00  1.00000000e+00  1.00000000e+00  1.00000000e+00
  1.83470016e-03  1.40373012e-02  6.88426061e-02  2.32184421e-01  4.67941342e-01
  3.62312032e-01 -1.19332409e-01 -1.60854212e-01  1.14345648e+00  6.89990956e-02
  3.16423980e-01  7.44308252e-01  1.00000000e+00  1.00000000e+00  1.00000000e+00
  1.00000000e+00  1.00000000e+00  1.83470016e-03  1.40373012e-02  6.88426061e-02
  2.32184421e-01  4.67941342e-01  3.62312032e-01 -1.19332409e-01 -1.60854212e-01
  1.14345648e+00  6.89990956e-02  3.16423980e-01  7.44308252e-01  1.00000000e+00
  1.00000000e+00  1.00000000e+00  1.00000000e+00  1.00000000e+00  1.83470016e-03
  1.40373012e-02  6.88426061e-02  2.32184421e-01  4.67941342e-01  3.62312032e-01
 -1.19332409e-01 -1.60854212e-01  1.14345648e+00  6.89990956e-02  3.16423980e-01
  7.44308252e-01  1.00000000e+00  1.00000000e+00  1.00000000e+00  1.00000000e+00
  1.00000000e+00  1.83470016e-03  1.40373012e-02  6.88426061e-02  2.32184421e-01
  4.67941342e-01  3.62312032e-01 -1.19332409e-01 -1.60854212e-01  1.14345648e+00
  6.89990956e-02  3.16423980e-01  7.44308252e-01  1.00000000e+00  1.00000000e+00
  1.00000000e+00  1.00000000e+00  1.00000000e+00  3.34945995e-02  2.34726947e-01
  8.13757318e-01  1.00000000e+00  3.34945995e-02  2.34726947e-01  8.13757318e-01
  1.00000000e+00  3.34945995e-02  2.34726947e-01  8.13757318e-01  1.00000000e+00
  1.83470016e-03  1.40373012e-02  6.88426061e-02  2.32184421e-01  4.67941342e-01
  3.62312032e-01 -1.19332409e-01 -1.60854212e-01  1.14345648e+00  6.89990956e-02
  3.16423980e-01  7.44308252e-01  1.00000000e+00  1.00000000e+00  1.00000000e+00
  1.00000000e+00  1.00000000e+00  3.34945995e-02  2.34726947e-01  8.13757318e-01
  1.00000000e+00  3.34945995e-02  2.34726947e-01  8.13757318e-01  1.00000000e+00
  1.83470016e-03  1.40373012e-02  6.88426061e-02  2.32184421e-01  4.67941342e-01
  3.62312032e-01 -1.19332409e-01 -1.60854212e-01  1.14345648e+00  6.89990956e-02
  3.16423980e-01  7.44308252e-01  1.00000000e+00  1.00000000e+00  1.00000000e+00
  1.00000000e+00  1.00000000e+00  3.34945995e-02  2.34726947e-01  8.13757318e-01
  1.00000000e+00  1.83109981e-03  1.39500985e-02  6.84450927e-02  2.32714275e-01
  4.70192950e-01  3.58520862e-01 -1.10777504e-01 -1.48026305e-01  1.13076704e+00
  7.08742995e-02  3.39752798e-01  7.27158595e-01  1.00000000e+00  1.00000000e+00
  1.00000000e+00  1.00000000e+00  1.00000000e+00  1.83470016e-03  1.40373012e-02
  6.88426061e-02  2.32184421e-01  4.67941342e-01  3.62312032e-01 -1.19332409e-01
 -1.60854212e-01  1.14345648e+00  6.89990956e-02  3.16423980e-01  7.44308252e-01
  1.00000000e+00  1.00000000e+00  1.00000000e+00  1.00000000e+00  1.00000000e+00
  3.34945995e-02  2.34726947e-01  8.13757318e-01  1.00000000e+00  3.34945995e-02
  2.34726947e-01  8.13757318e-01  1.00000000e+00  3.34945995e-02  2.34726947e-01
  8.13757318e-01  1.00000000e+00  1.83470016e-03  1.40373012e-02  6.88426061e-02
  2.32184421e-01  4.67941342e-01  3.62312032e-01 -1.19332409e-01 -1.60854212e-01
  1.14345648e+00  6.89990956e-02  3.16423980e-01  7.44308252e-01  1.00000000e+00
  1.00000000e+00  1.00000000e+00  1.00000000e+00  1.00000000e+00  3.34945995e-02
  2.34726947e-01  8.13757318e-01  1.00000000e+00  3.34945995e-02  2.34726947e-01
  8.13757318e-01  1.00000000e+00  1.83470016e-03  1.40373012e-02  6.88426061e-02
  2.32184421e-01  4.67941342e-01  3.62312032e-01 -1.19332409e-01 -1.60854212e-01
  1.14345648e+00  6.89990956e-02  3.16423980e-01  7.44308252e-01  1.00000000e+00
  1.00000000e+00  1.00000000e+00  1.00000000e+00  1.00000000e+00  3.34945995e-02
  2.34726947e-01  8.13757318e-01  1.00000000e+00  3.34945995e-02  2.34726947e-01
  8.13757318e-01  1.00000000e+00  3.34945995e-02  2.34726947e-01  8.13757318e-01
  1.00000000e+00  3.34945995e-02  2.34726947e-01  8.13757318e-01  1.00000000e+00
  3.34945995e-02  2.34726947e-01  8.13757318e-01  1.00000000e+00  3.34945995e-02
  2.34726947e-01  8.13757318e-01  1.00000000e+00  1.83470016e-03  1.40373012e-02
  6.88426061e-02  2.32184421e-01  4.67941342e-01  3.62312032e-01 -1.19332409e-01
 -1.60854212e-01  1.14345648e+00  6.89990956e-02  3.16423980e-01  7.44308252e-01
  1.00000000e+00  1.00000000e+00  1.00000000e+00  1.00000000e+00  1.00000000e+00
  3.34945995e-02  2.34726947e-01  8.13757318e-01  1.00000000e+00  3.34945995e-02
  2.34726947e-01  8.13757318e-01  1.00000000e+00  3.34945995e-02  2.34726947e-01
  8.13757318e-01  1.00000000e+00  3.34945995e-02  2.34726947e-01  8.13757318e-01
  1.00000000e+00
Coordinates of each shell                  R   N=         510
  1.30265019e+00 -1.10419283e+00 -3.05134177e+00  1.30265019e+00 -1.10419283e+00
 -3.05134177e+00  1.30265019e+00 -1.10419283e+00 -3.05134177e+00  1.30265019e+00
 -1.10419283e+00 -3.05134177e+00  1.30265019e+00 -1.10419283e+00 -3.05134177e+00
  1.30265019e+00 -1.10419283e+00 -3.05134177e+00  1.30265019e+00 -1.10419283e+00
 -3.05134177e+00  1.30265019e+00 -1.10419283e+00 -3.05134177e+00 -1.29873115e+00
 -1.52056037e-01 -2.41456746e+00 -1.29873115e+00 -1.52056037e-01 -2.41456746e+00
 -1.29873115e+00 -1.52056037e-01 -2.41456746e+00 -1.29873115e+00 -1.52056037e-01
 -2.41456746e+00 -1.29873115e+00 -1.52056037e-01 -2.41456746e+00 -1.29873115e+00
 -1.52056037e-01 -2.41456746e+00 -1.29873115e+00 -1.52056037e-01 -2.41456746e+00
 -1.29873115e+00 -1.52056037e-01 -2.41456746e+00 -1.91119131e+00  8.91964038e-01
  2.29763276e-01 -1.91119131e+00  8.91964038e-01  2.29763276e-01 -1.91119131e+00
  8.91964038e-01  2.29763276e-01 -1.91119131e+00  8.91964038e-01  2.29763276e-01
 -1.91119131e+00  8.91964038e-01  2.29763276e-01 -1.91119131e+00  8.91964038e-01
  2.29763276e-01 -1.91119131e+00  8.91964038e-01  2.29763276e-01 -1.91119131e+00
  8.91964038e-01  2.29763276e-01 -1.25741590e+00 -1.01238741e+00  2.13713406e+00
 -1.25741590e+00 -1.01238741e+00  2.13713406e+00 -1.25741590e+00 -1.01238741e+00
  2.13713406e+00 -1.25741590e+00 -1.01238741e+00  2.13713406e+00 -1.25741590e+00
 -1.01238741e+00  2.13713406e+00 -1.25741590e+00 -1.01238741e+00  2.13713406e+00
 -1.25741590e+00 -1.01238741e+00  2.13713406e+00 -1.25741590e+00 -1.01238741e+00
  2.13713406e+00  3.48516403e+00 -3.97160911e-01 -1.71681042e+00  3.48516403e+00
 -3.97160911e-01 -1.71681042e+00  3.48516403e+00 -3.97160911e-01 -1.71681042e+00
  3.48516403e+00 -3.97160911e-01 -1.71681042e+00  3.48516403e+00 -3.97160911e-01
 -1.71681042e+00  3.48516403e+00 -3.97160911e-01 -1.71681042e+00  3.48516403e+00
 -3.97160911e-01 -1.71681042e+00  3.48516403e+00 -3.97160911e-01 -1.71681042e+00
  5.85524581e+00 -1.30841230e+00 -2.43901364e+00  5.85524581e+00 -1.30841230e+00
 -2.43901364e+00  5.85524581e+00 -1.30841230e+00 -2.43901364e+00  5.85524581e+00
 -1.30841230e+00 -2.43901364e+00  5.85524581e+00 -1.30841230e+00 -2.43901364e+00
  5.85524581e+00 -1.30841230e+00 -2.43901364e+00  5.85524581e+00 -1.30841230e+00
 -2.43901364e+00  5.85524581e+00 -1.30841230e+00 -2.43901364e+00  6.06929977e+00
 -2.96014560e+00 -4.48721002e+00  6.06929977e+00 -2.96014560e+00 -4.48721002e+00
  6.06929977e+00 -2.96014560e+00 -4.48721002e+00  6.06929977e+00 -2.96014560e+00
 -4.48721002e+00  6.06929977e+00 -2.96014560e+00 -4.48721002e+00  6.06929977e+00
 -2.96014560e+00 -4.48721002e+00  6.06929977e+00 -2.96014560e+00 -4.48721002e+00
  6.06929977e+00 -2.96014560e+00 -4.48721002e+00  3.90587467e+00 -3.67802484e+00
 -5.82855704e+00  3.90587467e+00 -3.67802484e+00 -5.82855704e+00  3.90587467e+00
 -3.67802484e+00 -5.82855704e+00  3.90587467e+00 -3.67802484e+00 -5.82855704e+00
  3.90587467e+00 -3.67802484e+00 -5.82855704e+00  3.90587467e+00 -3.67802484e+00
 -5.82855704e+00  3.90587467e+00 -3.67802484e+00 -5.82855704e+00  3.90587467e+00
 -3.67802484e+00 -5.82855704e+00  1.54641132e+00 -2.74452300e+00 -5.12570235e+00
  1.54641132e+00 -2.74452300e+00 -5.12570235e+00  1.54641132e+00 -2.74452300e+00
 -5.12570235e+00  1.54641132e+00 -2.74452300e+00 -5.12570235e+00  1.54641132e+00
 -2.74452300e+00 -5.12570235e+00  1.54641132e+00 -2.74452300e+00 -5.12570235e+00
  1.54641132e+00 -2.74452300e+00 -5.12570235e+00  1.54641132e+00 -2.74452300e+00
 -5.12570235e+00  3.36618294e+00  9.12869937e-01 -1.42545360e-01  3.36618294e+00
  9.12869937e-01 -1.42545360e-01 -1.45608367e-01 -3.26742686e+00 -6.16077481e+00
 -1.45608367e-01 -3.26742686e+00 -6.16077481e+00  7.53095564e+00 -7.24697526e-01
 -1.40432518e+00  7.53095564e+00 -7.24697526e-01 -1.40432518e+00 -8.48623089e-01
  3.62340868e+00  6.30797676e-01 -8.48623089e-01  3.62340868e+00  6.30797676e-01
 -8.48623089e-01  3.62340868e+00  6.30797676e-01 -8.48623089e-01  3.62340868e+00
  6.30797676e-01 -8.48623089e-01  3.62340868e+00  6.30797676e-01 -8.48623089e-01
  3.62340868e+00  6.30797676e-01 -8.48623089e-01  3.62340868e+00  6.30797676e-01
 -8.48623089e-01  3.62340868e+00  6.30797676e-01 -3.97789843e+00  1.01081299e+00
  2.25739213e-01 -3.97789843e+00  1.01081299e+00  2.25739213e-01  6.66909206e-01
  3.55561617e+00  2.05228184e+00  6.66909206e-01  3.55561617e+00  2.05228184e+00
 -2.86241710e+00  5.54453625e+00  1.46012339e+00 -2.86241710e+00  5.54453625e+00
  1.46012339e+00 -2.86241710e+00  5.54453625e+00  1.46012339e+00 -2.86241710e+00
  5.54453625e+00  1.46012339e+00 -2.86241710e+00  5.54453625e+00  1.46012339e+00
 -2.86241710e+00  5.54453625e+00  1.46012339e+00 -2.86241710e+00  5.54453625e+00
  1.46012339e+00 -2.86241710e+00  5.54453625e+00  1.46012339e+00  3.22219715e-02
  4.31558985e+00 -1.11863572e+00  3.22219715e-02  4.31558985e+00 -1.11863572e+00
 -2.96915771e+00 -2.17633902e-01 -4.01269859e+00 -2.96915771e+00 -2.17633902e-01
 -4.01269859e+00 -2.96915771e+00 -2.17633902e-01 -4.01269859e+00 -2.96915771e+00
 -2.17633902e-01 -4.01269859e+00 -2.96915771e+00 -2.17633902e-01 -4.01269859e+00
 -2.96915771e+00 -2.17633902e-01 -4.01269859e+00 -2.96915771e+00 -2.17633902e-01
 -4.01269859e+00 -2.96915771e+00 -2.17633902e-01 -4.01269859e+00 -2.39883848e+00
 -6.39843456e-01  4.62934846e+00 -2.39883848e+00 -6.39843456e-01  4.62934846e+00
 -2.39883848e+00 -6.39843456e-01  4.62934846e+00 -2.39883848e+00 -6.39843456e-01
  4.62934846e+00 -2.39883848e+00 -6.39843456e-01  4.62934846e+00 -2.39883848e+00
 -6.39843456e-01  4.62934846e+00 -2.39883848e+00 -6.39843456e-01  4.62934846e+00
 -2.39883848e+00 -6.39843456e-01  4.62934846e+00  6.49928390e-01 -1.19474970e+00
  2.30854843e+00  6.49928390e-01 -1.19474970e+00  2.30854843e+00 -3.77745799e+00
  4.88064175e+00  3.20136319e+00 -3.77745799e+00  4.88064175e+00  3.20136319e+00
 -4.35078264e+00  5.61876743e+00  1.41800665e-02 -4.35078264e+00  5.61876743e+00
  1.41800665e-02 -1.78517135e+00  8.20002479e+00  1.88067349e+00 -1.78517135e+00
  8.20002479e+00  1.88067349e+00 -1.78517135e+00  8.20002479e+00  1.88067349e+00
 -1.78517135e+00  8.20002479e+00  1.88067349e+00 -1.78517135e+00  8.20002479e+00
  1.88067349e+00 -1.78517135e+00  8.20002479e+00  1.88067349e+00 -1.78517135e+00
  8.20002479e+00  1.88067349e+00 -1.78517135e+00  8.20002479e+00  1.88067349e+00
 -4.45563273e+00 -5.38669831e-01  4.36581575e+00 -4.45563273e+00 -5.38669831e-01
  4.36581575e+00 -1.82308732e+00  1.15853667e+00  5.52993725e+00 -1.82308732e+00
  1.15853667e+00  5.52993725e+00 -1.76090609e+00 -2.83418985e+00  6.40451789e+00
 -1.76090609e+00 -2.83418985e+00  6.40451789e+00 -1.76090609e+00 -2.83418985e+00