Generated by Psi4
     FORCE                           RHF                       TESTBAS
Number of atoms                            I               37
Charge                                     I                0
Multiplicity                               I                1
Number of electrons                        I              120
Number of alpha electrons                  I               60
Number of beta electrons                   I               60
Number of basis functions                  I              346
Number of independent functions            I              346
Atomic numbers                             I   N=          37
           6           6           6           7           6           6
           6           6           6           1           1           1
           1           6           1           1           6           1
           6           8           1           6           1           1
           1           1           6           1           6           1
           1           1           1           1           1           1
           1
Nuclear charges                            R   N=          37
  6.00000000e+00  6.00000000e+00  6.00000000e+00  7.00000000e+00  6.00000000e+00
  6.00000000e+00  6.00000000e+00  6.00000000e+00  6.00000000e+00  1.00000000e+00
  1.00000000e+00  1.00000000e+00  1.00000000e+00  6.00000000e+00  1.00000000e+00
  1.00000000e+00  6.00000000e+00  1.00000000e+00  6.00000000e+00  8.00000000e+00
  1.00000000e+00  6.00000000e+00  1.00000000e+00  1.00000000e+00  1.00000000e+00
  1.00000000e+00  6.00000000e+00  1.00000000e+00  6.00000000e+00  1.00000000e+00
  1.00000000e+00  1.00000000e+00  1.00000000e+00  1.00000000e+00  1.00000000e+00
  1.00000000e+00  1.00000000e+00
Current cartesian coordinates              R   N=         111
  1.31583613e+00 -1.70417485e+00 -2.79203086e+00 -1.30417386e+00 -1.18293975e+00
 -1.82095462e+00 -1.73783061e+00 -2.32712436e-01  8.92742224e-01 -5.48121591e-01
 -1.98762424e+00  2.68054843e+00  3.50644917e+00 -6.50349447e-01 -1.72626770e+00
  5.88265042e+00 -1.17040575e+00 -2.75190078e+00  6.10094454e+00 -2.77232745e+00
 -4.83897690e+00  3.93007467e+00 -3.83357579e+00 -5.91413219e+00  1.55815652e+00
 -3.29027736e+00 -4.90829313e+00  3.37713248e+00  6.28910693e-01 -1.27523524e-01
 -1.44153487e-01 -4.08235339e+00 -5.73446571e+00  7.55931634e+00 -3.21239430e-01
 -1.92299813e+00  4.09083113e+00 -5.08067426e+00 -7.53836063e+00 -1.08861041e+00
  2.63983603e+00  1.18909019e+00 -3.77967225e+00 -4.51833282e-01  1.15309502e+00
  5.46672649e-01  2.82991647e+00  2.45843659e+00 -3.29442335e+00  4.22876217e+00
  2.20932814e+00 -4.97034429e-01  3.43475068e+00 -6.36283999e-01 -1.41470726e+00
 -1.77730741e+00  5.30014902e+00 -3.13004521e+00 -1.52899834e+00 -3.19761724e+00
 -1.06312553e+00  1.12004965e-01  6.12315605e+00 -1.66331743e-01 -3.78775087e+00
  6.95506901e+00 -3.47114502e+00 -2.05070849e+00  5.29790155e+00  1.37000922e+00
 -1.85711782e+00  2.61095866e+00 -3.92118604e+00  3.45499716e+00  4.03357486e+00
 -4.91072552e+00  4.04278927e+00  9.16207289e-01 -2.63875146e+00  7.03500650e+00
  2.53026954e+00 -1.01948277e+00  7.21807390e+00  3.82120869e+00 -4.85183180e+00
  8.61565292e+00  3.53124647e+00 -2.01123018e+00  7.80312949e+00  7.03945376e-01
  1.89385047e+00 -3.54451750e+00  7.00589588e+00 -5.68985874e-01 -5.68326746e+00
  6.22783175e+00 -8.58326894e-01 -3.66204228e+00  8.90381168e+00  7.95154116e+00
 -3.18796719e+00 -5.62802119e+00 -5.48114275e+00  7.93462068e+00  5.38668979e+00
 -6.47741790e+00  8.52506596e+00  2.24660135e+00 -4.32309804e+00  1.06085687e+01
  3.73848410e+00
Integer atomic weights                     I   N=          37
          12          12          12          14          12          12
          12          12          12           1           1           1
           1          12           1           1          12           1
          12          15           1          12           1           1
           1           1          12           1          12           1
           1           1           1           1           1           1
           1
Real atomic weights                        R   N=          37
  1.20000000e+01  1.20000000e+01  1.20000000e+01  1.40030740e+01  1.20000000e+01
  1.20000000e+01  1.20000000e+01  1.20000000e+01  1.20000000e+01  1.00782503e+00
  1.00782503e+00  1.00782503e+00  1.00782503e+00  1.20000000e+01  1.00782503e+00
  1.00782503e+00  1.20000000e+01  1.00782503e+00  1.20000000e+01  1.59949146e+01
  1.00782503e+00  1.20000000e+01  1.00782503e+00  1.00782503e+00  1.00782503e+00
  1.00782503e+00  1.20000000e+01  1.00782503e+00  1.20000000e+01  1.00782503e+00
  1.00782503e+00  1.00782503e+00  1.00782503e+00  1.00782503e+00  1.00782503e+00
  1.00782503e+00  1.00782503e+00
Number of primitive shells                 I              356
Number of contracted shells                I              170
Pure/Cartesian d shells                    I                1
Pure/Cartesian f shells                    I                1
Highest angular momentum                   I                2
Largest degree of contraction              I                6
Shell types                                I   N=         170
           0           0           1           0           1           2
           0           1           0           0           1           0
           1           2           0           1           0           0
           1           0           1           2           0           1
           0           0           1           0           1           2
           0           1           0           0           1           0
           1           2           0           1           0           0
           1           0           1           2           0           1
           0           0           1           0           1           2
           0           1           0           0           1           0
           1           2           0           1           0           0
           1           0           1           2           0           1
           0           0           0           0           0           0
           0           0           0           0           1           0
           1           2           0           1           0           0
           0           0           0           0           1           0
           1           2           0           1           0           0
           0           0           1           0           1           2
           0           1           0           0           1           0
           1           2           0           1           0           0
           0           0           1           0           1           2
           0           1           0           0           0           0
           0           0           0           0           0           0
           1           0           1           2           0           1
           0           0           0           0           1           0
           1           2           0           1           0           0
           0           0           0           0           0           0
           0           0           0           0           0           0
           0           0
Number of primitives per shell             I   N=         170
           6           3           3           1           1           1
           1           1           6           3           3           1
           1           1           1           1           6           3
           3           1           1           1           1           1
           6           3           3           1           1           1
           1           1           6           3           3           1
           1           1           1           1           6           3
           3           1           1           1           1           1
           6           3           3           1           1           1
           1           1           6           3           3           1
           1           1           1           1           6           3
           3           1           1           1           1           1
           3           1           3           1           3           1
           3           1           6           3           3           1
           1           1           1           1           3           1
           3           1           6           3           3           1
           1           1           1           1           3           1
           6           3           3           1           1           1
           1           1           6           3           3           1
           1           1           1           1           3           1
           6           3           3           1           1           1
           1           1           3           1           3           1
           3           1           3           1           6           3
           3           1           1           1           1           1
           3           1           6           3           3           1
           1           1           1           1           3           1
           3           1           3           1           3           1
           3           1           3           1           3           1
           3           1
Shell to atom map                          I   N=         170
           1           1           1           1           1           1
           1           1           2           2           2           2
           2           2           2           2           3           3
           3           3           3           3           3           3
           4           4           4           4           4           4
           4           4           5           5           5           5
           5           5           5           5           6           6
           6           6           6           6           6           6
           7           7           7           7           7           7
           7           7           8           8           8           8
           8           8           8           8           9           9
           9           9           9           9           9           9
          10          10          11          11          12          12
          13          13          14          14          14          14
          14          14          14          14          15          15
          16          16          17          17          17          17
          17          17          17          17          18          18
          19          19          19          19          19          19
          19          19          20          20          20          20
          20          20          20          20          21          21
          22          22          22          22          22          22
          22          22          23          23          24          24
          25          25          26          26          27          27
          27          27          27          27          27          27
          28          28          29          29          29          29
          29          29          29          29          30          30
          31          31          32          32          33          33
          34          34          35          35          36          36
          37          37
Primitive exponents                        R   N=         356
  3.04752490e+03  4.57369510e+02  1.03948690e+02  2.92101550e+01  9.28666300e+00
  3.16392700e+00  7.86827240e+00  1.88128850e+00  5.44249300e-01  7.86827240e+00
  1.88128850e+00  5.44249300e-01  1.68714400e-01  1.68714400e-01  8.00000000e-01
  4.38000000e-02  4.38000000e-02  3.04752490e+03  4.57369510e+02  1.03948690e+02
  2.92101550e+01  9.28666300e+00  3.16392700e+00  7.86827240e+00  1.88128850e+00
  5.44249300e-01  7.86827240e+00  1.88128850e+00  5.44249300e-01  1.68714400e-01
  1.68714400e-01  8.00000000e-01  4.38000000e-02  4.38000000e-02  3.04752490e+03
  4.57369510e+02  1.03948690e+02  2.92101550e+01  9.28666300e+00  3.16392700e+00
  7.86827240e+00  1.88128850e+00  5.44249300e-01  7.86827240e+00  1.88128850e+00
  5.44249300e-01  1.68714400e-01  1.68714400e-01  8.00000000e-01  4.38000000e-02
  4.38000000e-02  4.17351100e+03  6.27457900e+02  1.42902100e+02  4.02343300e+01
  1.28202100e+01  4.39043700e+00  1.16263580e+01  2.71628000e+00  7.72218000e-01
  1.16263580e+01  2.71628000e+00  7.72218000e-01  2.12031300e-01  2.12031300e-01
  8.00000000e-01  6.39000000e-02  6.39000000e-02  3.04752490e+03  4.57369510e+02
  1.03948690e+02  2.92101550e+01  9.28666300e+00  3.16392700e+00  7.86827240e+00
  1.88128850e+00  5.44249300e-01  7.86827240e+00  1.88128850e+00  5.44249300e-01
  1.68714400e-01  1.68714400e-01  8.00000000e-01  4.38000000e-02  4.38000000e-02
  3.04752490e+03  4.57369510e+02  1.03948690e+02  2.92101550e+01  9.28666300e+00
  3.16392700e+00  7.86827240e+00  1.88128850e+00  5.44249300e-01  7.86827240e+00
  1.88128850e+00  5.44249300e-01  1.68714400e-01  1.68714400e-01  8.00000000e-01
  4.38000000e-02  4.38000000e-02  3.04752490e+03  4.57369510e+02  1.03948690e+02
  2.92101550e+01  9.28666300e+00  3.16392700e+00  7.86827240e+00  1.88128850e+00
  5.44249300e-01  7.86827240e+00  1.88128850e+00  5.44249300e-01  1.68714400e-01
  1.68714400e-01  8.00000000e-01  4.38000000e-02  4.38000000e-02  3.04752490e+03
  4.57369510e+02  1.03948690e+02  2.92101550e+01  9.28666300e+00  3.16392700e+00
  7.86827240e+00  1.88128850e+00  5.44249300e-01  7.86827240e+00  1.88128850e+00
  5.44249300e-01  1.68714400e-01  1.68714400e-01  8.00000000e-01  4.38000000e-02
  4.38000000e-02  3.04752490e+03  4.57369510e+02  1.03948690e+02  2.92101550e+01
  9.28666300e+00  3.16392700e+00  7.86827240e+00  1.88128850e+00  5.44249300e-01
  7.86827240e+00  1.88128850e+00  5.44249300e-01  1.68714400e-01  1.68714400e-01
  8.00000000e-01  4.38000000e-02  4.38000000e-02  1.87311370e+01  2.82539370e+00
  6.40121700e-01  1.61277800e-01  1.87311370e+01  2.82539370e+00  6.40121700e-01
  1.61277800e-01  1.87311370e+01  2.82539370e+00  6.40121700e-01  1.61277800e-01
  1.87311370e+01  2.82539370e+00  6.40121700e-01  1.61277800e-01  3.04752490e+03
  4.57369510e+02  1.03948690e+02  2.92101550e+01  9.28666300e+00  3.16392700e+00
  7.86827240e+00  1.88128850e+00  5.44249300e-01  7.86827240e+00  1.88128850e+00
  5.44249300e-01  1.68714400e-01  1.68714400e-01  8.00000000e-01  4.38000000e-02
  4.38000000e-02  1.87311370e+01  2.82539370e+00  6.40121700e-01  1.61277800e-01
  1.87311370e+01  2.82539370e+00  6.40121700e-01  1.61277800e-01  3.04752490e+03
  4.57369510e+02  1.03948690e+02  2.92101550e+01  9.28666300e+00  3.16392700e+00
  7.86827240e+00  1.88128850e+00  5.44249300e-01  7.86827240e+00  1.88128850e+00
  5.44249300e-01  1.68714400e-01  1.68714400e-01  8.00000000e-01  4.38000000e-02
  4.38000000e-02  1.87311370e+01  2.82539370e+00  6.40121700e-01  1.61277800e-01
  3.04752490e+03  4.57369510e+02  1.03948690e+02  2.92101550e+01  9.28666300e+00
  3.16392700e+00  7.86827240e+00  1.88128850e+00  5.44249300e-01  7.86827240e+00
  1.88128850e+00  5.44249300e-01  1.68714400e-01  1.68714400e-01  8.00000000e-01
  4.38000000e-02  4.38000000e-02  5.48467170e+03  8.25234950e+02  1.88046960e+02
  5.29645000e+01  1.68975700e+01  5.79963530e+00  1.55396160e+01  3.59993360e+00
  1.01376180e+00  1.55396160e+01  3.59993360e+00  1.01376180e+00  2.70005800e-01
  2.70005800e-01  8.00000000e-01  8.45000000e-02  8.45000000e-02  1.87311370e+01
  2.82539370e+00  6.40121700e-01  1.61277800e-01  3.04752490e+03  4.57369510e+02
  1.03948690e+02  2.92101550e+01  9.28666300e+00  3.16392700e+00  7.86827240e+00
  1.88128850e+00  5.44249300e-01  7.86827240e+00  1.88128850e+00  5.44249300e-01
  1.68714400e-01  1.68714400e-01  8.00000000e-01  4.38000000e-02  4.38000000e-02
  1.87311370e+01  2.82539370e+00  6.40121700e-01  1.61277800e-01  1.87311370e+01
  2.82539370e+00  6.40121700e-01  1.61277800e-01  1.87311370e+01  2.82539370e+00
  6.40121700e-01  1.61277800e-01  1.87311370e+01  2.82539370e+00  6.40121700e-01
  1.61277800e-01  3.04752490e+03  4.57369510e+02  1.03948690e+02  2.92101550e+01
  9.28666300e+00  3.16392700e+00  7.86827240e+00  1.88128850e+00  5.44249300e-01
  7.86827240e+00  1.88128850e+00  5.44249300e-01  1.68714400e-01  1.68714400e-01
  8.00000000e-01  4.38000000e-02  4.38000000e-02  1.87311370e+01  2.82539370e+00
  6.40121700e-01  1.61277800e-01  3.04752490e+03  4.57369510e+02  1.03948690e+02
  2.92101550e+01  9.28666300e+00  3.16392700e+00  7.86827240e+00  1.88128850e+00
  5.44249300e-01  7.86827240e+00  1.88128850e+00  5.44249300e-01  1.68714400e-01
  1.68714400e-01  8.00000000e-01  4.38000000e-02  4.38000000e-02  1.87311370e+01
  2.82539370e+00  6.40121700e-01  1.61277800e-01  1.87311370e+01  2.82539370e+00
  6.40121700e-01  1.61277800e-01  1.87311370e+01  2.82539370e+00  6.40121700e-01
  1.61277800e-01  1.87311370e+01  2.82539370e+00  6.40121700e-01  1.61277800e-01
  1.87311370e+01  2.82539370e+00  6.40121700e-01  1.61277800e-01  1.87311370e+01
  2.82539370e+00  6.40121700e-01  1.61277800e-01  1.87311370e+01  2.82539370e+00
  6.40121700e-01  1.61277800e-01  1.87311370e+01  2.82539370e+00  6.40121700e-01
  1.61277800e-01
Contraction coefficients                   R   N=         356
  1.83470016e-03  1.40373012e-02  6.88426061e-02  2.32184421e-01  4.67941342e-01
  3.62312032e-01 -1.19332409e-01 -1.60854212e-01  1.14345648e+00  6.89990956e-02
  3.16423980e-01  7.44308252e-01  1.00000000e+00  1.00000000e+00  1.00000000e+00
  1.00000000e+00  1.00000000e+00  1.83470016e-03  1.40373012e-02  6.88426061e-02
  2.32184421e-01  4.67941342e-01  3.62312032e-01 -1.19332409e-01 -1.60854212e-01
  1.14345648e+00  6.89990956e-02  3.16423980e-01  7.44308252e-01  1.00000000e+00
  1.00000000e+00  1.00000000e+00  1.00000000e+00  1.00000000e+00  1.83470016e-03
  1.40373012e-02  6.88426061e-02  2.32184421e-01  4.67941342e-01  3.62312032e-01
 -1.19332409e-01 -1.60854212e-01  1.14345648e+00  6.89990956e-02  3.16423980e-01
  7.44308252e-01  1.00000000e+00  1.00000000e+00  1.00000000e+00  1.00000000e+00
  1.00000000e+00  1.83479944e-03  1.39949958e-02  6.85869792e-02  2.32240930e-01
  4.69069858e-01  3.60454891e-01 -1.14961023e-01 -1.69118034e-01  1.14585223e+00
  6.75800232e-02  3.23907111e-01  7.40895255e-01  1.00000000e+00  1.00000000e+00
  1.00000000e+00  1.00000000e+00  1.00000000e+00  1.83470016e-03  1.40373012e-02
  6.88426061e-02  2.32184421e-01  4.67941342e-01  3.62312032e-01 -1.19332409e-01
 -1.60854212e-01  1.14345648e+00  6.89990956e-02  3.16423980e-01  7.44308252e-01
  1.00000000e+00  1.00000000e+00  1.00000000e+00  1.00000000e+00  1.00000000e+00
  1.83470016e-03  1.40373012e-02  6.88426061e-02  2.32184421e-01  4.67941342e-01
  3.62312032e-01 -1.19332409e-01 -1.60854212e-01  1.14345648e+00  6.89990956e-02
  3.16423980e-01  7.44308252e-01  1.00000000e+00  1.00000000e+00  1.00000000e+00
  1.00000000e+00  1.00000000e+00  1.83470016e-03  1.40373012e-02  6.88426061e-02
  2.32184421e-01  4.67941342e-01  3.62312032e-01 -1.19332409e-01 -1.60854212e-01
  1.14345648e+00  6.89990956e-02  3.16423980e-01  7.44308252e-01  1.00000000e+00
  1.00000000e+00  1.00000000e+00  1.00000000e+00  1.00000000e+00  1.83470016e-03
  1.40373012e-02  6.88426061e-02  2.32184421e-01  4.67941342e-01  3.62312032e-01
 -1.19332409e-01 -1.60854212e-01  1.14345648e+00  6.89990956e-02  3.16423980e-01
  7.44308252e-01  1.00000000e+00  1.00000000e+00  1.00000000e+00  1.00000000e+00
  1.00000000e+00  1.83470016e-03  1.40373012e-02  6.88426061e-02  2.32184421e-01
  4.67941342e-01  3.62312032e-01 -1.19332409e-01 -1.60854212e-01  1.14345648e+00
  6.89990956e-02  3.16423980e-01  7.44308252e-01  1.00000000e+00  1.00000000e+00
  1.00000000e+00  1.00000000e+00  1.00000000e+00  3.34945995e-02  2.34726947e-01
  8.13757318e-01  1.00000000e+00  3.34945995e-02  2.34726947e-01  8.13757318e-01
  1.00000000e+00  3.34945995e-02  2.34726947e-01  8.13757318e-01  1.00000000e+00
  3.34945995e-02  2.34726947e-01  8.13757318e-01  1.00000000e+00  1.83470016e-03
  1.40373012e-02  6.88426061e-02  2.32184421e-01  4.67941342e-01  3.62312032e-01
 -1.19332409e-01 -1.60854212e-01  1.14345648e+00  6.89990956e-02  3.16423980e-01
  7.44308252e-01  1.00000000e+00  1.00000000e+00  1.00000000e+00  1.00000000e+00
  1.00000000e+00  3.34945995e-02  2.34726947e-01  8.13757318e-01  1.00000000e+00
  3.34945995e-02  2.34726947e-01  8.13757318e-01  1.00000000e+00  1.83470016e-03
  1.40373012e-02  6.88426061e-02  2.32184421e-01  4.67941342e-01  3.62312032e-01
 -1.19332409e-01 -1.60854212e-01  1.14345648e+00  6.89990956e-02  3.16423980e-01
  7.44308252e-01  1.00000000e+00  1.00000000e+00  1.00000000e+00  1.00000000e+00
  1.00000000e+00  3.34945995e-02  2.34726947e-01  8.13757318e-01  1.00000000e+00
  1.83470016e-03  1.40373012e-02  6.88426061e-02  2.32184421e-01  4.67941342e-01
  3.62312032e-01 -1.19332409e-01 -1.60854212e-01  1.14345648e+00  6.89990956e-02
  3.16423980e-01  7.44308252e-01  1.00000000e+00  1.00000000e+00  1.00000000e+00
  1.00000000e+00  1.00000000e+00  1.83109981e-03  1.39500985e-02  6.84450927e-02
  2.32714275e-01  4.70192950e-01  3.58520862e-01 -1.10777504e-01 -1.48026305e-01
  1.13076704e+00  7.08742995e-02  3.39752798e-01  7.27158595e-01  1.00000000e+00
  1.00000000e+00  1.00000000e+00  1.00000000e+00  1.00000000e+00  3.34945995e-02
  2.34726947e-01  8.13757318e-01  1.00000000e+00  1.83470016e-03  1.40373012e-02
  6.88426061e-02  2.32184421e-01  4.67941342e-01  3.62312032e-01 -1.19332409e-01
 -1.60854212e-01  1.14345648e+00  6.89990956e-02  3.16423980e-01  7.44308252e-01
  1.00000000e+00  1.00000000e+00  1.00000000e+00  1.00000000e+00  1.00000000e+00
  3.34945995e-02  2.34726947e-01  8.13757318e-01  1.00000000e+00  3.34945995e-02
  2.34726947e-01  8.13757318e-01  1.00000000e+00  3.34945995e-02  2.34726947e-01
  8.13757318e-01  1.00000000e+00  3.34945995e-02  2.34726947e-01  8.13757318e-01
  1.00000000e+00  1.83470016e-03  1.40373012e-02  6.88426061e-02  2.32184421e-01
  4.67941342e-01  3.62312032e-01 -1.19332409e-01 -1.60854212e-01  1.14345648e+00
  6.89990956e-02  3.16423980e-01  7.44308252e-01  1.00000000e+00  1.00000000e+00
  1.00000000e+00  1.00000000e+00  1.00000000e+00  3.34945995e-02  2.34726947e-01
  8.13757318e-01  1.00000000e+00  1.83470016e-03  1.40373012e-02  6.88426061e-02
  2.32184421e-01  4.67941342e-01  3.62312032e-01 -1.19332409e-01 -1.60854212e-01
  1.14345648e+00  6.89990956e-02  3.16423980e-01  7.44308252e-01  1.00000000e+00
  1.00000000e+00  1.00000000e+00  1.00000000e+00  1.00000000e+00  3.34945995e-02
  2.34726947e-01  8.13757318e-01  1.00000000e+00  3.34945995e-02  2.34726947e-01
  8.13757318e-01  1.00000000e+00  3.34945995e-02  2.34726947e-01  8.13757318e-01
  1.00000000e+00  3.34945995e-02  2.34726947e-01  8.13757318e-01  1.00000000e+00
  3.34945995e-02  2.34726947e-01  8.13757318e-01  1.00000000e+00  3.34945995e-02
  2.34726947e-01  8.13757318e-01  1.00000000e+00  3.34945995e-02  2.34726947e-01
  8.13757318e-01  1.00000000e+00  3.34945995e-02  2.34726947e-01  8.13757318e-01
  1.00000000e+00
Coordinates of each shell                  R   N=         510
  1.31583613e+00 -1.70417485e+00 -2.79203086e+00  1.31583613e+00 -1.70417485e+00
 -2.79203086e+00  1.31583613e+00 -1.70417485e+00 -2.79203086e+00  1.31583613e+00
 -1.70417485e+00 -2.79203086e+00  1.31583613e+00 -1.70417485e+00 -2.79203086e+00
  1.31583613e+00 -1.70417485e+00 -2.79203086e+00  1.31583613e+00 -1.70417485e+00
 -2.79203086e+00  1.31583613e+00 -1.70417485e+00 -2.79203086e+00 -1.30417386e+00
 -1.18293975e+00 -1.82095462e+00 -1.30417386e+00 -1.18293975e+00 -1.82095462e+00
 -1.30417386e+00 -1.18293975e+00 -1.82095462e+00 -1.30417386e+00 -1.18293975e+00
 -1.82095462e+00 -1.30417386e+00 -1.18293975e+00 -1.82095462e+00 -1.30417386e+00
 -1.18293975e+00 -1.82095462e+00 -1.30417386e+00 -1.18293975e+00 -1.82095462e+00
 -1.30417386e+00 -1.18293975e+00 -1.82095462e+00 -1.73783061e+00 -2.32712436e-01
  8.92742224e-01 -1.73783061e+00 -2.32712436e-01  8.92742224e-01 -1.73783061e+00
 -2.32712436e-01  8.92742224e-01 -1.73783061e+00 -2.32712436e-01  8.92742224e-01
 -1.73783061e+00 -2.32712436e-01  8.92742224e-01 -1.73783061e+00 -2.32712436e-01
  8.92742224e-01 -1.73783061e+00 -2.32712436e-01  8.92742224e-01 -1.73783061e+00
 -2.32712436e-01  8.92742224e-01 -5.48121591e-01 -1.98762424e+00  2.68054843e+00
 -5.48121591e-01 -1.98762424e+00  2.68054843e+00 -5.48121591e-01 -1.98762424e+00
  2.68054843e+00 -5.48121591e-01 -1.98762424e+00  2.68054843e+00 -5.48121591e-01
 -1.98762424e+00  2.68054843e+00 -5.48121591e-01 -1.98762424e+00  2.68054843e+00
 -5.48121591e-01 -1.98762424e+00  2.68054843e+00 -5.48121591e-01 -1.98762424e+00
  2.68054843e+00  3.50644917e+00 -6.50349447e-01 -1.72626770e+00  3.50644917e+00
 -6.50349447e-01 -1.72626770e+00  3.50644917e+00 -6.50349447e-01 -1.72626770e+00
  3.50644917e+00 -6.50349447e-01 -1.72626770e+00  3.50644917e+00 -6.50349447e-01
 -1.72626770e+00  3.50644917e+00 -6.50349447e-01 -1.72626770e+00  3.50644917e+00
 -6.50349447e-01 -1.72626770e+00  3.50644917e+00 -6.50349447e-01 -1.72626770e+00
  5.88265042e+00 -1.17040575e+00 -2.75190078e+00  5.88265042e+00 -1.17040575e+00
 -2.75190078e+00  5.88265042e+00 -1.17040575e+00 -2.75190078e+00  5.88265042e+00
 -1.17040575e+00 -2.75190078e+00  5.88265042e+00 -1.17040575e+00 -2.75190078e+00
  5.88265042e+00 -1.17040575e+00 -2.75190078e+00  5.88265042e+00 -1.17040575e+00
 -2.75190078e+00  5.88265042e+00 -1.17040575e+00 -2.75190078e+00  6.10094454e+00
 -2.77232745e+00 -4.83897690e+00  6.10094454e+00 -2.77232745e+00 -4.83897690e+00
  6.10094454e+00 -2.77232745e+00 -4.83897690e+00  6.10094454e+00 -2.77232745e+00
 -4.83897690e+00  6.10094454e+00 -2.77232745e+00 -4.83897690e+00  6.10094454e+00
 -2.77232745e+00 -4.83897690e+00  6.10094454e+00 -2.77232745e+00 -4.83897690e+00
  6.10094454e+00 -2.77232745e+00 -4.83897690e+00  3.93007467e+00 -3.83357579e+00
 -5.91413219e+00  3.93007467e+00 -3.83357579e+00 -5.91413219e+00  3.93007467e+00
 -3.83357579e+00 -5.91413219e+00  3.93007467e+00 -3.83357579e+00 -5.91413219e+00
  3.93007467e+00 -3.83357579e+00 -5.91413219e+00  3.93007467e+00 -3.83357579e+00
 -5.91413219e+00  3.93007467e+00 -3.83357579e+00 -5.91413219e+00  3.93007467e+00
 -3.83357579e+00 -5.91413219e+00  1.55815652e+00 -3.29027736e+00 -4.90829313e+00
  1.55815652e+00 -3.29027736e+00 -4.90829313e+00  1.55815652e+00 -3.29027736e+00
 -4.90829313e+00  1.55815652e+00 -3.29027736e+00 -4.90829313e+00  1.55815652e+00
 -3.29027736e+00 -4.90829313e+00  1.55815652e+00 -3.29027736e+00 -4.90829313e+00
  1.55815652e+00 -3.29027736e+00 -4.90829313e+00  1.55815652e+00 -3.29027736e+00
 -4.90829313e+00  3.37713248e+00  6.28910693e-01 -1.27523524e-01  3.37713248e+00
  6.28910693e-01 -1.27523524e-01 -1.44153487e-01 -4.08235339e+00 -5.73446571e+00
 -1.44153487e-01 -4.08235339e+00 -5.73446571e+00  7.55931634e+00 -3.21239430e-01
 -1.92299813e+00  7.55931634e+00 -3.21239430e-01 -1.92299813e+00  4.09083113e+00
 -5.08067426e+00 -7.53836063e+00  4.09083113e+00 -5.08067426e+00 -7.53836063e+00
 -1.08861041e+00  2.63983603e+00  1.18909019e+00 -1.08861041e+00  2.63983603e+00
  1.18909019e+00 -1.08861041e+00  2.63983603e+00  1.18909019e+00 -1.08861041e+00
  2.63983603e+00  1.18909019e+00 -1.08861041e+00  2.63983603e+00  1.18909019e+00
 -1.08861041e+00  2.63983603e+00  1.18909019e+00 -1.08861041e+00  2.63983603e+00
  1.18909019e+00 -1.08861041e+00  2.63983603e+00  1.18909019e+00 -3.77967225e+00
 -4.51833282e-01  1.15309502e+00 -3.77967225e+00 -4.51833282e-01  1.15309502e+00
  5.46672649e-01  2.82991647e+00  2.45843659e+00  5.46672649e-01  2.82991647e+00
  2.45843659e+00 -3.29442335e+00  4.22876217e+00  2.20932814e+00 -3.29442335e+00
  4.22876217e+00  2.20932814e+00 -3.29442335e+00  4.22876217e+00  2.20932814e+00
 -3.29442335e+00  4.22876217e+00  2.20932814e+00 -3.29442335e+00  4.22876217e+00
  2.20932814e+00 -3.29442335e+00  4.22876217e+00  2.20932814e+00 -3.29442335e+00
  4.22876217e+00  2.20932814e+00 -3.29442335e+00  4.22876217e+00  2.20932814e+00
 -4.97034429e-01  3.43475068e+00 -6.36283999e-01 -4.97034429e-01  3.43475068e+00
 -6.36283999e-01 -1.41470726e+00 -1.77730741e+00  5.30014902e+00 -1.41470726e+00
 -1.77730741e+00  5.30014902e+00 -1.41470726e+00 -1.77730741e+00  5.30014902e+00
 -1.41470726e+00 -1.77730741e+00  5.30014902e+00 -1.41470726e+00 -1.77730741e+00
  5.30014902e+00 -1.41470726e+00 -1.77730741e+00  5.30014902e+00 -1.41470726e+00
 -1.77730741e+00  5.30014902e+00 -1.41470726e+00 -1.77730741e+00  5.30014902e+00
 -3.13004521e+00 -1.52899834e+00 -3.19761724e+00 -3.13004521e+00 -1.52899834e+00
 -3.19761724e+00 -3.13004521e+00 -1.52899834e+00 -3.19761724e+00 -3.13004521e+00
 -1.52899834e+00 -3.19761724e+00 -3.13004521e+00 -1.52899834e+00 -3.19761724e+00
 -3.13004521e+00 -1.52899834e+00 -3.19761724e+00 -3.13004521e+00 -1.52899834e+00
 -3.19761724e+00 -3.13004521e+00 -1.52899834e+00 -3.19761724e+00 -1.06312553e+00
  1.12004965e-01  6.12315605e+00 -1.06312553e+00  1.12004965e-01  6.12315605e+00
 -1.66331743e-01 -3.78775087e+00  6.95506901e+00 -1.66331743e-01 -3.78775087e+00
  6.95506901e+00 -1.66331743e-01 -3.78775087e+00  6.95506901e+00 -1.66331743e-01
 -3.78775087e+00  6.95506901e+00 -1.66331743e-01 -3.78775087e+00  6.95506901e+00
 -1.66331743e-01 -3.78775087e+00  6.95506901e+00 -1.66331743e-01 -3.78775087e+00
  6.95506901e+00 -1.66331743e-01 -3.78775087e+00  6.95506901e+00 -3.47114502e+00
 -2.05070849e+00  5.29790155e+00 -3.47114502e+00 -2.05070849e+00  5.29790155e+00
  1.37000922e+00 -1.85711782e+00  2.61095866e+00  1.37000922e+00 -1.85711782e+00
  2.61095866e+00 -3.92118604e+00  3.45499716e+00  4.03357486e+00 -3.92118604e+00
  3.45499716e+00  4.03357486e+00 -4.91072552e+00  4.04278927e+00  9.16207289e-01
 -4.91072552e+00  4.04278927e+00  9.16207289e-01 -2.63875146e+00  7.03500650e+00