Generated by Psi4
     FORCE                           RHF                       TESTBAS
Number of atoms                            I               32
Charge                                     I                0
Multiplicity                               I                1
Number of electrons                        I               98
Number of alpha electrons                  I               49
Number of beta electrons                   I               49
Number of basis functions                  I              285
Number of independent functions            I              285
Atomic numbers                             I   N=          32
           6           6           6           1           1           7
           6           6           6           6           6           1
           1           6           1           1           1           1
           6           1           1           1           1           1
           6           1           6           1           1           1
           1           1
Nuclear charges                            R   N=          32
  6.00000000e+00  6.00000000e+00  6.00000000e+00  1.00000000e+00  1.00000000e+00
  7.00000000e+00  6.00000000e+00  6.00000000e+00  6.00000000e+00  6.00000000e+00
  6.00000000e+00  1.00000000e+00  1.00000000e+00  6.00000000e+00  1.00000000e+00
  1.00000000e+00  1.00000000e+00  1.00000000e+00  6.00000000e+00  1.00000000e+00
  1.00000000e+00  1.00000000e+00  1.00000000e+00  1.00000000e+00  6.00000000e+00
  1.00000000e+00  6.00000000e+00  1.00000000e+00  1.00000000e+00  1.00000000e+00
  1.00000000e+00  1.00000000e+00
Current cartesian coordinates              R   N=          96
  2.03149361e+00 -1.12023017e-01 -1.68593667e+00  9.70541034e-01 -1.44937162e+00
  6.11492394e-01 -1.36013472e+00 -1.41662024e-01  1.82098291e+00  2.42765745e+00
 -1.63409639e+00  2.07409348e+00  4.32742343e-01 -3.37827615e+00  7.66419140e-02
 -2.48735713e+00 -1.84198352e+00  3.70649335e+00  4.33312814e+00  1.19879727e+00
 -1.57907464e+00  5.30188688e+00  2.43746987e+00 -3.70294401e+00  3.97663767e+00
  2.38794050e+00 -5.98550333e+00  1.68227631e+00  1.08378331e+00 -6.12573970e+00
  7.28037256e-01 -1.53121130e-01 -3.99839315e+00 -1.04946961e+00 -1.17903972e+00
 -4.13737652e+00  7.09368671e+00  3.43508682e+00 -3.57223824e+00 -6.26490644e-01
  2.38450395e+00  3.05613325e+00 -2.73097471e+00  2.69784121e-01  2.91084509e-01
  4.72627574e+00  3.34602558e+00 -7.64088933e+00  6.40658489e-01  1.02032584e+00
 -7.89609414e+00  5.38484519e+00  1.24179887e+00  1.87535181e-01 -2.86568420e+00
  4.03674860e+00  3.87850702e+00  5.19696621e-01  3.45560903e+00  1.70330471e+00
  5.96974817e-01  1.98355412e+00  4.68751772e+00 -4.11547750e+00  4.44998498e+00
  2.27599984e+00 -2.19793770e+00  5.84535238e+00  4.63723144e+00 -4.01621976e+00
  3.15272536e+00  5.36062790e+00 -4.15584161e+00 -3.80590216e+00  2.69808615e+00
 -3.47574030e+00 -8.08011616e-01  4.99181453e+00 -5.32030042e+00 -5.36914149e+00
  4.82852247e+00 -3.04321872e+00 -5.05143277e+00  1.47105822e+00 -5.67554949e+00
 -3.00142465e+00  1.50275885e+00 -3.84297455e+00 -6.25555556e+00  5.97649892e+00
 -6.54314369e+00 -6.85557367e+00  4.06227141e+00 -6.48072124e+00 -4.18719313e+00
  6.07909149e+00
Integer atomic weights                     I   N=          32
          12          12          12           1           1          14
          12          12          12          12          12           1
           1          12           1           1           1           1
          12           1           1           1           1           1
          12           1          12           1           1           1
           1           1
Real atomic weights                        R   N=          32
  1.20000000e+01  1.20000000e+01  1.20000000e+01  1.00782503e+00  1.00782503e+00
  1.40030740e+01  1.20000000e+01  1.20000000e+01  1.20000000e+01  1.20000000e+01
  1.20000000e+01  1.00782503e+00  1.00782503e+00  1.20000000e+01  1.00782503e+00
  1.00782503e+00  1.00782503e+00  1.00782503e+00  1.20000000e+01  1.00782503e+00
  1.00782503e+00  1.00782503e+00  1.00782503e+00  1.00782503e+00  1.20000000e+01
  1.00782503e+00  1.20000000e+01  1.00782503e+00  1.00782503e+00  1.00782503e+00
  1.00782503e+00  1.00782503e+00
Number of primitive shells                 I              297
Number of contracted shells                I              142
Pure/Cartesian d shells                    I                1
Pure/Cartesian f shells                    I                1
Highest angular momentum                   I                2
Largest degree of contraction              I                6
Shell types                                I   N=         142
           0           0           1           0           1           2
           0           1           0           0           1           0
           1           2           0           1           0           0
           1           0           1           2           0           1
           0           0           0           0           0           0
           1           0           1           2           0           1
           0           0           1           0           1           2
           0           1           0           0           1           0
           1           2           0           1           0           0
           1           0           1           2           0           1
           0           0           1           0           1           2
           0           1           0           0           1           0
           1           2           0           1           0           0
           0           0           0           0           1           0
           1           2           0           1           0           0
           0           0           0           0           0           0
           0           0           1           0           1           2
           0           1           0           0           0           0
           0           0           0           0           0           0
           0           0           1           0           1           2
           0           1           0           0           0           0
           1           0           1           2           0           1
           0           0           0           0           0           0
           0           0           0           0
Number of primitives per shell             I   N=         142
           6           3           3           1           1           1
           1           1           6           3           3           1
           1           1           1           1           6           3
           3           1           1           1           1           1
           3           1           3           1           6           3
           3           1           1           1           1           1
           6           3           3           1           1           1
           1           1           6           3           3           1
           1           1           1           1           6           3
           3           1           1           1           1           1
           6           3           3           1           1           1
           1           1           6           3           3           1
           1           1           1           1           3           1
           3           1           6           3           3           1
           1           1           1           1           3           1
           3           1           3           1           3           1
           6           3           3           1           1           1
           1           1           3           1           3           1
           3           1           3           1           3           1
           6           3           3           1           1           1
           1           1           3           1           6           3
           3           1           1           1           1           1
           3           1           3           1           3           1
           3           1           3           1
Shell to atom map                          I   N=         142
           1           1           1           1           1           1
           1           1           2           2           2           2
           2           2           2           2           3           3
           3           3           3           3           3           3
           4           4           5           5           6           6
           6           6           6           6           6           6
           7           7           7           7           7           7
           7           7           8           8           8           8
           8           8           8           8           9           9
           9           9           9           9           9           9
          10          10          10          10          10          10
          10          10          11          11          11          11
          11          11          11          11          12          12
          13          13          14          14          14          14
          14          14          14          14          15          15
          16          16          17          17          18          18
          19          19          19          19          19          19
          19          19          20          20          21          21
          22          22          23          23          24          24
          25          25          25          25          25          25
          25          25          26          26          27          27
          27          27          27          27          27          27
          28          28          29          29          30          30
          31          31          32          32
Primitive exponents                        R   N=         297
  3.04752490e+03  4.57369510e+02  1.03948690e+02  2.92101550e+01  9.28666300e+00
  3.16392700e+00  7.86827240e+00  1.88128850e+00  5.44249300e-01  7.86827240e+00
  1.88128850e+00  5.44249300e-01  1.68714400e-01  1.68714400e-01  8.00000000e-01
  4.38000000e-02  4.38000000e-02  3.04752490e+03  4.57369510e+02  1.03948690e+02
  2.92101550e+01  9.28666300e+00  3.16392700e+00  7.86827240e+00  1.88128850e+00
  5.44249300e-01  7.86827240e+00  1.88128850e+00  5.44249300e-01  1.68714400e-01
  1.68714400e-01  8.00000000e-01  4.38000000e-02  4.38000000e-02  3.04752490e+03
  4.57369510e+02  1.03948690e+02  2.92101550e+01  9.28666300e+00  3.16392700e+00
  7.86827240e+00  1.88128850e+00  5.44249300e-01  7.86827240e+00  1.88128850e+00
  5.44249300e-01  1.68714400e-01  1.68714400e-01  8.00000000e-01  4.38000000e-02
  4.38000000e-02  1.87311370e+01  2.82539370e+00  6.40121700e-01  1.61277800e-01
  1.87311370e+01  2.82539370e+00  6.40121700e-01  1.61277800e-01  4.17351100e+03
  6.27457900e+02  1.42902100e+02  4.02343300e+01  1.28202100e+01  4.39043700e+00
  1.16263580e+01  2.71628000e+00  7.72218000e-01  1.16263580e+01  2.71628000e+00
  7.72218000e-01  2.12031300e-01  2.12031300e-01  8.00000000e-01  6.39000000e-02
  6.39000000e-02  3.04752490e+03  4.57369510e+02  1.03948690e+02  2.92101550e+01
  9.28666300e+00  3.16392700e+00  7.86827240e+00  1.88128850e+00  5.44249300e-01
  7.86827240e+00  1.88128850e+00  5.44249300e-01  1.68714400e-01  1.68714400e-01
  8.00000000e-01  4.38000000e-02  4.38000000e-02  3.04752490e+03  4.57369510e+02
  1.03948690e+02  2.92101550e+01  9.28666300e+00  3.16392700e+00  7.86827240e+00
  1.88128850e+00  5.44249300e-01  7.86827240e+00  1.88128850e+00  5.44249300e-01
  1.68714400e-01  1.68714400e-01  8.00000000e-01  4.38000000e-02  4.38000000e-02
  3.04752490e+03  4.57369510e+02  1.03948690e+02  2.92101550e+01  9.28666300e+00
  3.16392700e+00  7.86827240e+00  1.88128850e+00  5.44249300e-01  7.86827240e+00
  1.88128850e+00  5.44249300e-01  1.68714400e-01  1.68714400e-01  8.00000000e-01
  4.38000000e-02  4.38000000e-02  3.04752490e+03  4.57369510e+02  1.03948690e+02
  2.92101550e+01  9.28666300e+00  3.16392700e+00  7.86827240e+00  1.88128850e+00
  5.44249300e-01  7.86827240e+00  1.88128850e+00  5.44249300e-01  1.68714400e-01
  1.68714400e-01  8.00000000e-01  4.38000000e-02  4.38000000e-02  3.04752490e+03
  4.57369510e+02  1.03948690e+02  2.92101550e+01  9.28666300e+00  3.16392700e+00
  7.86827240e+00  1.88128850e+00  5.44249300e-01  7.86827240e+00  1.88128850e+00
  5.44249300e-01  1.68714400e-01  1.68714400e-01  8.00000000e-01  4.38000000e-02
  4.38000000e-02  1.87311370e+01  2.82539370e+00  6.40121700e-01  1.61277800e-01
  1.87311370e+01  2.82539370e+00  6.40121700e-01  1.61277800e-01  3.04752490e+03
  4.57369510e+02  1.03948690e+02  2.92101550e+01  9.28666300e+00  3.16392700e+00
  7.86827240e+00  1.88128850e+00  5.44249300e-01  7.86827240e+00  1.88128850e+00
  5.44249300e-01  1.68714400e-01  1.68714400e-01  8.00000000e-01  4.38000000e-02
  4.38000000e-02  1.87311370e+01  2.82539370e+00  6.40121700e-01  1.61277800e-01
  1.87311370e+01  2.82539370e+00  6.40121700e-01  1.61277800e-01  1.87311370e+01
  2.82539370e+00  6.40121700e-01  1.61277800e-01  1.87311370e+01  2.82539370e+00
  6.40121700e-01  1.61277800e-01  3.04752490e+03  4.57369510e+02  1.03948690e+02
  2.92101550e+01  9.28666300e+00  3.16392700e+00  7.86827240e+00  1.88128850e+00
  5.44249300e-01  7.86827240e+00  1.88128850e+00  5.44249300e-01  1.68714400e-01
  1.68714400e-01  8.00000000e-01  4.38000000e-02  4.38000000e-02  1.87311370e+01
  2.82539370e+00  6.40121700e-01  1.61277800e-01  1.87311370e+01  2.82539370e+00
  6.40121700e-01  1.61277800e-01  1.87311370e+01  2.82539370e+00  6.40121700e-01
  1.61277800e-01  1.87311370e+01  2.82539370e+00  6.40121700e-01  1.61277800e-01
  1.87311370e+01  2.82539370e+00  6.40121700e-01  1.61277800e-01  3.04752490e+03
  4.57369510e+02  1.03948690e+02  2.92101550e+01  9.28666300e+00  3.16392700e+00
  7.86827240e+00  1.88128850e+00  5.44249300e-01  7.86827240e+00  1.88128850e+00
  5.44249300e-01  1.68714400e-01  1.68714400e-01  8.00000000e-01  4.38000000e-02
  4.38000000e-02  1.87311370e+01  2.82539370e+00  6.40121700e-01  1.61277800e-01
  3.04752490e+03  4.57369510e+02  1.03948690e+02  2.92101550e+01  9.28666300e+00
  3.16392700e+00  7.86827240e+00  1.88128850e+00  5.44249300e-01  7.86827240e+00
  1.88128850e+00  5.44249300e-01  1.68714400e-01  1.68714400e-01  8.00000000e-01
  4.38000000e-02  4.38000000e-02  1.87311370e+01  2.82539370e+00  6.40121700e-01
  1.61277800e-01  1.87311370e+01  2.82539370e+00  6.40121700e-01  1.61277800e-01
  1.87311370e+01  2.82539370e+00  6.40121700e-01  1.61277800e-01  1.87311370e+01
  2.82539370e+00  6.40121700e-01  1.61277800e-01  1.87311370e+01  2.82539370e+00
  6.40121700e-01  1.61277800e-01
Contraction coefficients                   R   N=         297
  1.83470016e-03  1.40373012e-02  6.88426061e-02  2.32184421e-01  4.67941342e-01
  3.62312032e-01 -1.19332409e-01 -1.60854212e-01  1.14345648e+00  6.89990956e-02
  3.16423980e-01  7.44308252e-01  1.00000000e+00  1.00000000e+00  1.00000000e+00
  1.00000000e+00  1.00000000e+00  1.83470016e-03  1.40373012e-02  6.88426061e-02
  2.32184421e-01  4.67941342e-01  3.62312032e-01 -1.19332409e-01 -1.60854212e-01
  1.14345648e+00  6.89990956e-02  3.16423980e-01  7.44308252e-01  1.00000000e+00
  1.00000000e+00  1.00000000e+00  1.00000000e+00  1.00000000e+00  1.83470016e-03
  1.40373012e-02  6.88426061e-02  2.32184421e-01  4.67941342e-01  3.62312032e-01
 -1.19332409e-01 -1.60854212e-01  1.14345648e+00  6.89990956e-02  3.16423980e-01
  7.44308252e-01  1.00000000e+00  1.00000000e+00  1.00000000e+00  1.00000000e+00
  1.00000000e+00  3.34945995e-02  2.34726947e-01  8.13757318e-01  1.00000000e+00
  3.34945995e-02  2.34726947e-01  8.13757318e-01  1.00000000e+00  1.83479944e-03
  1.39949958e-02  6.85869792e-02  2.32240930e-01  4.69069858e-01  3.60454891e-01
 -1.14961023e-01 -1.69118034e-01  1.14585223e+00  6.75800232e-02  3.23907111e-01
  7.40895255e-01  1.00000000e+00  1.00000000e+00  1.00000000e+00  1.00000000e+00
  1.00000000e+00  1.83470016e-03  1.40373012e-02  6.88426061e-02  2.32184421e-01
  4.67941342e-01  3.62312032e-01 -1.19332409e-01 -1.60854212e-01  1.14345648e+00
  6.89990956e-02  3.16423980e-01  7.44308252e-01  1.00000000e+00  1.00000000e+00
  1.00000000e+00  1.00000000e+00  1.00000000e+00  1.83470016e-03  1.40373012e-02
  6.88426061e-02  2.32184421e-01  4.67941342e-01  3.62312032e-01 -1.19332409e-01
 -1.60854212e-01  1.14345648e+00  6.89990956e-02  3.16423980e-01  7.44308252e-01
  1.00000000e+00  1.00000000e+00  1.00000000e+00  1.00000000e+00  1.00000000e+00
  1.83470016e-03  1.40373012e-02  6.88426061e-02  2.32184421e-01  4.67941342e-01
  3.62312032e-01 -1.19332409e-01 -1.60854212e-01  1.14345648e+00  6.89990956e-02
  3.16423980e-01  7.44308252e-01  1.00000000e+00  1.00000000e+00  1.00000000e+00
  1.00000000e+00  1.00000000e+00  1.83470016e-03  1.40373012e-02  6.88426061e-02
  2.32184421e-01  4.67941342e-01  3.62312032e-01 -1.19332409e-01 -1.60854212e-01
  1.14345648e+00  6.89990956e-02  3.16423980e-01  7.44308252e-01  1.00000000e+00
  1.00000000e+00  1.00000000e+00  1.00000000e+00  1.00000000e+00  1.83470016e-03
  1.40373012e-02  6.88426061e-02  2.32184421e-01  4.67941342e-01  3.62312032e-01
 -1.19332409e-01 -1.60854212e-01  1.14345648e+00  6.89990956e-02  3.16423980e-01
  7.44308252e-01  1.00000000e+00  1.00000000e+00  1.00000000e+00  1.00000000e+00
  1.00000000e+00  3.34945995e-02  2.34726947e-01  8.13757318e-01  1.00000000e+00
  3.34945995e-02  2.34726947e-01  8.13757318e-01  1.00000000e+00  1.83470016e-03
  1.40373012e-02  6.88426061e-02  2.32184421e-01  4.67941342e-01  3.62312032e-01
 -1.19332409e-01 -1.60854212e-01  1.14345648e+00  6.89990956e-02  3.16423980e-01
  7.44308252e-01  1.00000000e+00  1.00000000e+00  1.00000000e+00  1.00000000e+00
  1.00000000e+00  3.34945995e-02  2.34726947e-01  8.13757318e-01  1.00000000e+00
  3.34945995e-02  2.34726947e-01  8.13757318e-01  1.00000000e+00  3.34945995e-02
  2.34726947e-01  8.13757318e-01  1.00000000e+00  3.34945995e-02  2.34726947e-01
  8.13757318e-01  1.00000000e+00  1.83470016e-03  1.40373012e-02  6.88426061e-02
  2.32184421e-01  4.67941342e-01  3.62312032e-01 -1.19332409e-01 -1.60854212e-01
  1.14345648e+00  6.89990956e-02  3.16423980e-01  7.44308252e-01  1.00000000e+00
  1.00000000e+00  1.00000000e+00  1.00000000e+00  1.00000000e+00  3.34945995e-02
  2.34726947e-01  8.13757318e-01  1.00000000e+00  3.34945995e-02  2.34726947e-01
  8.13757318e-01  1.00000000e+00  3.34945995e-02  2.34726947e-01  8.13757318e-01
  1.00000000e+00  3.34945995e-02  2.34726947e-01  8.13757318e-01  1.00000000e+00
  3.34945995e-02  2.34726947e-01  8.13757318e-01  1.00000000e+00  1.83470016e-03
  1.40373012e-02  6.88426061e-02  2.32184421e-01  4.67941342e-01  3.62312032e-01
 -1.19332409e-01 -1.60854212e-01  1.14345648e+00  6.89990956e-02  3.16423980e-01
  7.44308252e-01  1.00000000e+00  1.00000000e+00  1.00000000e+00  1.00000000e+00
  1.00000000e+00  3.34945995e-02  2.34726947e-01  8.13757318e-01  1.00000000e+00
  1.83470016e-03  1.40373012e-02  6.88426061e-02  2.32184421e-01  4.67941342e-01
  3.62312032e-01 -1.19332409e-01 -1.60854212e-01  1.14345648e+00  6.89990956e-02
  3.16423980e-01  7.44308252e-01  1.00000000e+00  1.00000000e+00  1.00000000e+00
  1.00000000e+00  1.00000000e+00  3.34945995e-02  2.34726947e-01  8.13757318e-01
  1.00000000e+00  3.34945995e-02  2.34726947e-01  8.13757318e-01  1.00000000e+00
  3.34945995e-02  2.34726947e-01  8.13757318e-01  1.00000000e+00  3.34945995e-02
  2.34726947e-01  8.13757318e-01  1.00000000e+00  3.34945995e-02  2.34726947e-01
  8.13757318e-01  1.00000000e+00
Coordinates of each shell                  R   N=         426
  2.03149361e+00 -1.12023017e-01 -1.68593667e+00  2.03149361e+00 -1.12023017e-01
 -1.68593667e+00  2.03149361e+00 -1.12023017e-01 -1.68593667e+00  2.03149361e+00
 -1.12023017e-01 -1.68593667e+00  2.03149361e+00 -1.12023017e-01 -1.68593667e+00
  2.03149361e+00 -1.12023017e-01 -1.68593667e+00  2.03149361e+00 -1.12023017e-01
 -1.68593667e+00  2.03149361e+00 -1.12023017e-01 -1.68593667e+00  9.70541034e-01
 -1.44937162e+00  6.11492394e-01  9.70541034e-01 -1.44937162e+00  6.11492394e-01
  9.70541034e-01 -1.44937162e+00  6.11492394e-01  9.70541034e-01 -1.44937162e+00
  6.11492394e-01  9.70541034e-01 -1.44937162e+00  6.11492394e-01  9.70541034e-01
 -1.44937162e+00  6.11492394e-01  9.70541034e-01 -1.44937162e+00  6.11492394e-01
  9.70541034e-01 -1.44937162e+00  6.11492394e-01 -1.36013472e+00 -1.41662024e-01
  1.82098291e+00 -1.36013472e+00 -1.41662024e-01  1.82098291e+00 -1.36013472e+00
 -1.41662024e-01  1.82098291e+00 -1.36013472e+00 -1.41662024e-01  1.82098291e+00
 -1.36013472e+00 -1.41662024e-01  1.82098291e+00 -1.36013472e+00 -1.41662024e-01
  1.82098291e+00 -1.36013472e+00 -1.41662024e-01  1.82098291e+00 -1.36013472e+00
 -1.41662024e-01  1.82098291e+00  2.42765745e+00 -1.63409639e+00  2.07409348e+00
  2.42765745e+00 -1.63409639e+00  2.07409348e+00  4.32742343e-01 -3.37827615e+00
  7.66419140e-02  4.32742343e-01 -3.37827615e+00  7.66419140e-02 -2.48735713e+00
 -1.84198352e+00  3.70649335e+00 -2.48735713e+00 -1.84198352e+00  3.70649335e+00
 -2.48735713e+00 -1.84198352e+00  3.70649335e+00 -2.48735713e+00 -1.84198352e+00
  3.70649335e+00 -2.48735713e+00 -1.84198352e+00  3.70649335e+00 -2.48735713e+00
 -1.84198352e+00  3.70649335e+00 -2.48735713e+00 -1.84198352e+00  3.70649335e+00
 -2.48735713e+00 -1.84198352e+00  3.70649335e+00  4.33312814e+00  1.19879727e+00
 -1.57907464e+00  4.33312814e+00  1.19879727e+00 -1.57907464e+00  4.33312814e+00
  1.19879727e+00 -1.57907464e+00  4.33312814e+00  1.19879727e+00 -1.57907464e+00
  4.33312814e+00  1.19879727e+00 -1.57907464e+00  4.33312814e+00  1.19879727e+00
 -1.57907464e+00  4.33312814e+00  1.19879727e+00 -1.57907464e+00  4.33312814e+00
  1.19879727e+00 -1.57907464e+00  5.30188688e+00  2.43746987e+00 -3.70294401e+00
  5.30188688e+00  2.43746987e+00 -3.70294401e+00  5.30188688e+00  2.43746987e+00
 -3.70294401e+00  5.30188688e+00  2.43746987e+00 -3.70294401e+00  5.30188688e+00
  2.43746987e+00 -3.70294401e+00  5.30188688e+00  2.43746987e+00 -3.70294401e+00
  5.30188688e+00  2.43746987e+00 -3.70294401e+00  5.30188688e+00  2.43746987e+00
 -3.70294401e+00  3.97663767e+00  2.38794050e+00 -5.98550333e+00  3.97663767e+00
  2.38794050e+00 -5.98550333e+00  3.97663767e+00  2.38794050e+00 -5.98550333e+00
  3.97663767e+00  2.38794050e+00 -5.98550333e+00  3.97663767e+00  2.38794050e+00
 -5.98550333e+00  3.97663767e+00  2.38794050e+00 -5.98550333e+00  3.97663767e+00
  2.38794050e+00 -5.98550333e+00  3.97663767e+00  2.38794050e+00 -5.98550333e+00
  1.68227631e+00  1.08378331e+00 -6.12573970e+00  1.68227631e+00  1.08378331e+00
 -6.12573970e+00  1.68227631e+00  1.08378331e+00 -6.12573970e+00  1.68227631e+00
  1.08378331e+00 -6.12573970e+00  1.68227631e+00  1.08378331e+00 -6.12573970e+00
  1.68227631e+00  1.08378331e+00 -6.12573970e+00  1.68227631e+00  1.08378331e+00
 -6.12573970e+00  1.68227631e+00  1.08378331e+00 -6.12573970e+00  7.28037256e-01
 -1.53121130e-01 -3.99839315e+00  7.28037256e-01 -1.53121130e-01 -3.99839315e+00
  7.28037256e-01 -1.53121130e-01 -3.99839315e+00  7.28037256e-01 -1.53121130e-01
 -3.99839315e+00  7.28037256e-01 -1.53121130e-01 -3.99839315e+00  7.28037256e-01
 -1.53121130e-01 -3.99839315e+00  7.28037256e-01 -1.53121130e-01 -3.99839315e+00
  7.28037256e-01 -1.53121130e-01 -3.99839315e+00 -1.04946961e+00 -1.17903972e+00
 -4.13737652e+00 -1.04946961e+00 -1.17903972e+00 -4.13737652e+00  7.09368671e+00
  3.43508682e+00 -3.57223824e+00  7.09368671e+00  3.43508682e+00 -3.57223824e+00
 -6.26490644e-01  2.38450395e+00  3.05613325e+00 -6.26490644e-01  2.38450395e+00
  3.05613325e+00 -6.26490644e-01  2.38450395e+00  3.05613325e+00 -6.26490644e-01
  2.38450395e+00  3.05613325e+00 -6.26490644e-01  2.38450395e+00  3.05613325e+00
 -6.26490644e-01  2.38450395e+00  3.05613325e+00 -6.26490644e-01  2.38450395e+00
  3.05613325e+00 -6.26490644e-01  2.38450395e+00  3.05613325e+00 -2.73097471e+00
  2.69784121e-01  2.91084509e-01 -2.73097471e+00  2.69784121e-01  2.91084509e-01
  4.72627574e+00  3.34602558e+00 -7.64088933e+00  4.72627574e+00  3.34602558e+00
 -7.64088933e+00  6.40658489e-01  1.02032584e+00 -7.89609414e+00  6.40658489e-01
  1.02032584e+00 -7.89609414e+00  5.38484519e+00  1.24179887e+00  1.87535181e-01
  5.38484519e+00  1.24179887e+00  1.87535181e-01 -2.86568420e+00  4.03674860e+00
  3.87850702e+00 -2.86568420e+00  4.03674860e+00  3.87850702e+00 -2.86568420e+00
  4.03674860e+00  3.87850702e+00 -2.86568420e+00  4.03674860e+00  3.87850702e+00
 -2.86568420e+00  4.03674860e+00  3.87850702e+00 -2.86568420e+00  4.03674860e+00
  3.87850702e+00 -2.86568420e+00  4.03674860e+00  3.87850702e+00 -2.86568420e+00
  4.03674860e+00  3.87850702e+00  5.19696621e-01  3.45560903e+00  1.70330471e+00
  5.19696621e-01  3.45560903e+00  1.70330471e+00  5.96974817e-01  1.98355412e+00
  4.68751772e+00  5.96974817e-01  1.98355412e+00  4.68751772e+00 -4.11547750e+00
  4.44998498e+00  2.27599984e+00 -4.11547750e+00  4.44998498e+00  2.27599984e+00
 -2.19793770e+00  5.84535238e+00  4.63723144e+00 -2.19793770e+00  5.84535238e+00
  4.63723144e+00 -4.01621976e+00  3.15272536e+00  5.36062790e+00 -4.01621976e+00
  3.15272536e+00  5.36062790e+00 -4.15584161e+00 -3.80590216e+00  2.69808615e+00
 -4.15584161e+00 -3.80590216e+00  2.69808615e+00 -4.15584161e+00 -3.80590216e+00
  2.69808615e+00 -4.15584161e+00 -3.80590216e+00  2.69808615e+00 -4.15584161e+00
 -3.80590216e+00  2.69808615e+00 -4.15584161e+00 -3.80590216e+00  2.69808615e+00
 -4.15584161e+00 -3.80590216e+00  2.69808615e+00 -4.15584161e+00 -3.80590216e+00
  2.69808615e+00 -3.47574030e+00 -8.08011616e-01  4.99181453e+00 -3.47574030e+00
 -8.08011616e-01  4.99181453e+00 -5.32030042e+00 -5.36914149e+00  4.82852247e+00
 -5.32030042e+00 -5.36914149e+00  4.82852247e+00 -5.32030042e+00 -5.36914149e+00
  4.82852247e+00 -5.32030042e+00 -5.36914149e+00  4.82852247e+00 -5.32030042e+00
 -5.36914149e+00  4.82852247e+00 -5.32030042e+00 -5.36914149e+00  4.82852247e+00
 -5.32030042e+00 -5.36914149e+00  4.82852247e+00 -5.32030042e+00 -5.36914149e+00
  4.82852247e+00 -3.04321872e+00 -5.05143277e+00  1.47105822e+00 -3.04321872e+00
 -5.05143277e+00  1.47105822e+00 -5.67554949e+00 -3.00142465e+00  1.50275885e+00
 -5.67554949e+00 -3.00142465e+00  1.50275885e+00 -3.84297455e+00 -6.25555556e+00
  5.97649892e+00 -3.84297455e+00 -6.25555556e+00  5.97649892e+00 -6.54314369e+00
 -6.85557367e+00  4.06227141e+00 -6.54314369e+00 -6.85557367e+00  4.06227141e+00
 -6.48072124e+00 -4.18719313e+00  6.07909149e+00 -6.48072124e+00 -4.18719313e+00
  6.07909149e+00
Total Energy                               R     -5.234915804153842e+02
Alpha Orbital Energies                     R   N=         285
 -1.43222524e+01 -1.02172043e+01 -1.02115151e+01 -1.01999206e+01 -1.01951780e+01
 -1.01947817e+01 -1.01934193e+01 -1.01922756e+01 -1.01919905e+01 -1.01853521e+01
 -1.01845973e+01 -1.01828280e+01 -1.01806465e+01 -9.09263497e-01 -8.57565573e-01
 -7.95662824e-01 -7.65078000e-01 -7.46424690e-01 -7.35926190e-01 -7.02132249e-01
 -6.43602155e-01 -6.09415836e-01 -6.07908290e-01 -5.92566320e-01 -5.65936323e-01
 -5.15837472e-01 -4.86757753e-01 -4.78233304e-01 -4.60614779e-01 -4.54464977e-01
 -4.44002469e-01 -4.35070823e-01 -4.24716461e-01 -4.20921287e-01 -4.14080291e-01
 -3.98383466e-01 -3.81341430e-01 -3.75340324e-01 -3.68597797e-01 -3.64538235e-01
 -3.53619161e-01 -3.45325806e-01 -3.42172125e-01 -3.37496897e-01 -3.32361882e-01
 -3.19567614e-01 -2.54117668e-01 -2.46011441e-01 -2.25890611e-01 -1.38335719e-02
 -1.06331304e-02  3.91127977e-03  9.72774395e-03  1.51487444e-02  1.92857982e-02
  2.63285459e-02  3.46709762e-02  4.00017062e-02  4.25948337e-02  4.87846065e-02
  5.13299978e-02  5.68942508e-02  6.11946691e-02  6.47994993e-02  7.56418163e-02
  7.76083604e-02  8.27911754e-02  8.56539721e-02  9.27361130e-02  9.46530424e-02
  9.66531941e-02  1.05341452e-01  1.10441614e-01  1.18487215e-01  1.23103179e-01
  1.25614354e-01  1.27079528e-01  1.36897740e-01  1.40007227e-01  1.41661622e-01
  1.47254309e-01  1.56655592e-01  1.60772343e-01  1.68668836e-01  1.72362995e-01
  1.74383222e-01  1.78674517e-01  1.82741954e-01  1.84548709e-01  1.93410672e-01
  1.95423917e-01  1.99657320e-01  2.08363981e-01  2.12459676e-01  2.15312956e-01
  2.17447356e-01  2.18449484e-01  2.23912974e-01  2.26901938e-01  2.36858054e-01
  2.37866450e-01  2.41433989e-01  2.45204829e-01  2.49839619e-01  2.54552843e-01
  2.56731411e-01  2.58961567e-01  2.61569189e-01  2.64077350e-01  2.76065944e-01
  2.81092791e-01  2.84973792e-01  2.86633113e-01  2.91610522e-01  2.98001935e-01
  2.98387066e-01  3.06582275e-01  3.10600706e-01  3.22024631e-01  3.26307060e-01
  3.31087745e-01  3.37439540e-01  3.47904540e-01  3.54559046e-01  3.55050538e-01
  3.61740249e-01  3.80294865e-01  3.89465322e-01  3.90024765e-01  3.97644201e-01
  4.00245272e-01  4.11336327e-01  4.34100692e-01  4.74455145e-01  5.74868797e-01
  6.08342849e-01  6.38196882e-01  6.58643605e-01  6.65373668e-01  6.70226455e-01
  6.77296399e-01  6.85862924e-01  6.95743917e-01  7.00250867e-01  7.06057066e-01
  7.13014735e-01  7.19045126e-01  7.30209234e-01  7.35462103e-01  7.37441488e-01
  7.44463932e-01  7.51024526e-01  7.60393880e-01  7.65529650e-01  7.74851229e-01
  7.84677281e-01  8.03855333e-01  8.07869355e-01  8.16341194e-01  8.33048233e-01
  8.48793252e-01  8.79075474e-01  9.02768822e-01  9.07314879e-01  9.14629457e-01
  9.38091781e-01  9.40935842e-01  9.46110855e-01  9.49880260e-01  9.66710442e-01
  9.71115547e-01  9.84327716e-01  9.91539482e-01  9.96095229e-01  9.97551871e-01
  1.01328085e+00  1.03635124e+00  1.03956439e+00  1.05619813e+00  1.07319579e+00
  1.08785235e+00  1.10221174e+00  1.10966025e+00  1.11342959e+00  1.12074948e+00
  1.12903527e+00  1.13651642e+00  1.14579940e+00  1.15966561e+00  1.16843445e+00